4.728279999999999816e+00 9.560670000000000002e+00 2.100750000000000117e+00 1.188450000000000006e+00 1.188450000000000006e+00 3.565500000000000114e+00 3.565500000000000114e+00 3.565500000000000114e+00 3.565500000000000114e+00 3.565500000000000114e+00 1.188450000000000006e+00 1.188499999999999890e+00 1.188450000000000006e+00 3.565500000000000114e+00 1.188499999999999890e+00 5.942549999999999777e+00 1.188450000000000006e+00 3.565500000000000114e+00 8.319449999999999790e+00 3.565500000000000114e+00 3.565500000000000114e+00 8.319449999999999790e+00 1.188450000000000006e+00 1.188499999999999890e+00 5.942549999999999777e+00 3.565500000000000114e+00 1.188499999999999890e+00 1.069650000000000034e+01 1.188450000000000006e+00 3.565500000000000114e+00 1.307354999999999912e+01 3.565500000000000114e+00 3.565500000000000114e+00 1.307354999999999912e+01 1.188450000000000006e+00 1.188499999999999890e+00 1.069650000000000034e+01 3.565500000000000114e+00 1.188499999999999890e+00 1.188450000000000006e+00 5.942549999999999777e+00 3.565500000000000114e+00 3.565500000000000114e+00 8.319449999999999790e+00 3.565500000000000114e+00 3.565500000000000114e+00 5.942549999999999777e+00 1.188499999999999890e+00 1.188450000000000006e+00 8.319449999999999790e+00 1.188499999999999890e+00 5.942549999999999777e+00 5.942549999999999777e+00 3.565500000000000114e+00 8.319449999999999790e+00 8.319449999999999790e+00 3.565500000000000114e+00 8.319449999999999790e+00 5.942549999999999777e+00 1.188499999999999890e+00 5.942549999999999777e+00 8.319449999999999790e+00 1.188499999999999890e+00 1.069650000000000034e+01 5.942549999999999777e+00 3.565500000000000114e+00 1.307354999999999912e+01 8.319449999999999790e+00 3.565500000000000114e+00 1.307354999999999912e+01 5.942549999999999777e+00 1.188499999999999890e+00 1.069650000000000034e+01 8.319449999999999790e+00 1.188499999999999890e+00 1.188450000000000006e+00 1.069650000000000034e+01 3.565500000000000114e+00 3.565500000000000114e+00 1.307354999999999912e+01 3.565500000000000114e+00 3.565500000000000114e+00 1.069650000000000034e+01 1.188499999999999890e+00 1.188450000000000006e+00 1.307354999999999912e+01 1.188499999999999890e+00 5.942549999999999777e+00 1.069650000000000034e+01 3.565500000000000114e+00 8.319449999999999790e+00 1.307354999999999912e+01 3.565500000000000114e+00 8.319449999999999790e+00 1.069650000000000034e+01 1.188499999999999890e+00 5.942549999999999777e+00 1.307354999999999912e+01 1.188499999999999890e+00 1.069650000000000034e+01 1.069650000000000034e+01 3.565500000000000114e+00 1.307354999999999912e+01 1.307354999999999912e+01 3.565500000000000114e+00 1.307354999999999912e+01 1.069650000000000034e+01 1.188499999999999890e+00 1.069650000000000034e+01 1.307354999999999912e+01 1.188499999999999890e+00 0.000000000000000000e+00 0.000000000000000000e+00 0.000000000000000000e+00 2.377050000000000107e+00 2.377050000000000107e+00 2.376999999999999780e+00 4.753949999999999676e+00 0.000000000000000000e+00 0.000000000000000000e+00 7.131000000000000227e+00 2.377050000000000107e+00 2.376999999999999780e+00 9.508050000000000779e+00 0.000000000000000000e+00 0.000000000000000000e+00 1.188494999999999990e+01 2.377050000000000107e+00 2.376999999999999780e+00 0.000000000000000000e+00 4.753949999999999676e+00 0.000000000000000000e+00 2.377050000000000107e+00 7.131000000000000227e+00 2.376999999999999780e+00 4.753949999999999676e+00 4.753949999999999676e+00 0.000000000000000000e+00 7.131000000000000227e+00 7.131000000000000227e+00 2.376999999999999780e+00 9.508050000000000779e+00 4.753949999999999676e+00 0.000000000000000000e+00 1.188494999999999990e+01 7.131000000000000227e+00 2.376999999999999780e+00 0.000000000000000000e+00 9.508050000000000779e+00 0.000000000000000000e+00 2.377050000000000107e+00 1.188494999999999990e+01 2.376999999999999780e+00 4.753949999999999676e+00 9.508050000000000779e+00 0.000000000000000000e+00 7.131000000000000227e+00 1.188494999999999990e+01 2.376999999999999780e+00 9.508050000000000779e+00 9.508050000000000779e+00 0.000000000000000000e+00 1.188494999999999990e+01 1.188494999999999990e+01 2.376999999999999780e+00
4.726619999999999600e+00 9.556419999999999249e+00 2.105319999999999858e+00 1.187580000000000080e+00 1.188949999999999951e+00 3.566539999999999822e+00 3.566100000000000048e+00 3.562640000000000029e+00 3.565119999999999845e+00 3.566749999999999865e+00 1.189240000000000075e+00 1.185400000000000009e+00 1.187000000000000055e+00 3.566289999999999960e+00 1.189810000000000034e+00 5.942919999999999980e+00 1.188790000000000013e+00 3.564499999999999780e+00 8.320650000000000546e+00 3.564970000000000194e+00 3.567169999999999952e+00 8.318550000000000111e+00 1.187519999999999909e+00 1.186539999999999928e+00 5.941329999999999778e+00 3.567860000000000031e+00 1.190320000000000045e+00 1.069752000000000081e+01 1.191319999999999935e+00 3.566190000000000193e+00 1.307310000000000016e+01 3.562260000000000204e+00 3.565910000000000135e+00 1.307732999999999990e+01 1.190250000000000030e+00 1.188369999999999926e+00 1.069566000000000017e+01 3.564360000000000195e+00 1.186530000000000085e+00 1.187380000000000102e+00 5.939989999999999881e+00 3.568319999999999936e+00 3.567079999999999806e+00 8.320650000000000546e+00 3.566629999999999967e+00 3.563670000000000115e+00 5.943419999999999703e+00 1.187470000000000026e+00 1.192709999999999937e+00 8.319399999999999906e+00 1.185859999999999914e+00 5.943839999999999790e+00 5.941760000000000375e+00 3.566650000000000098e+00 8.320679999999999410e+00 8.319630000000000081e+00 3.566300000000000026e+00 8.319660000000000721e+00 5.942230000000000345e+00 1.188560000000000061e+00 5.941760000000000375e+00 8.319110000000000227e+00 1.190609999999999946e+00 1.069561999999999991e+01 5.943139999999999645e+00 3.565510000000000179e+00 1.307381999999999955e+01 8.319879999999999498e+00 3.567530000000000090e+00 1.307197000000000031e+01 5.942989999999999995e+00 1.188539999999999930e+00 1.069763999999999982e+01 8.317790000000000461e+00 1.186970000000000081e+00 1.186309999999999976e+00 1.069762000000000057e+01 3.566530000000000200e+00 3.564400000000000013e+00 1.307432999999999979e+01 3.564280000000000115e+00 3.566749999999999865e+00 1.069463000000000008e+01 1.189429999999999987e+00 1.187780000000000058e+00 1.307460000000000022e+01 1.189400000000000013e+00 5.942260000000000097e+00 1.069762000000000057e+01 3.563260000000000094e+00 8.321550000000000225e+00 1.307086999999999932e+01 3.563619999999999788e+00 8.317600000000000549e+00 1.069518000000000058e+01 1.190050000000000052e+00 5.942630000000000301e+00 1.307512000000000008e+01 1.190299999999999914e+00 1.069335000000000058e+01 1.069663000000000075e+01 3.563940000000000108e+00 1.307417000000000051e+01 1.307681000000000004e+01 3.564719999999999889e+00 1.307305000000000028e+01 1.069675999999999938e+01 1.188209999999999988e+00 1.069426999999999950e+01 1.307568000000000019e+01 1.187980000000000036e+00 1.425775999999999932e+01 1.425948999999999955e+01 6.999999999999999929e-04 2.378319999999999990e+00 2.376879999999999882e+00 2.383519999999999861e+00 4.752860000000000085e+00 1.425942000000000043e+01 4.749959999999999738e+00 7.138510000000000133e+00 2.379719999999999835e+00 2.376360000000000028e+00 9.506629999999999470e+00 3.710000000000000190e-03 4.750180000000000291e+00 1.188726999999999911e+01 2.378960000000000186e+00 2.373190000000000133e+00 1.425822999999999929e+01 4.752500000000000391e+00 4.753849999999999909e+00 2.375030000000000197e+00 7.131459999999999688e+00 2.383070000000000022e+00 4.757789999999999964e+00 4.757200000000000095e+00 4.752779999999999561e+00 7.133750000000000036e+00 7.127069999999999794e+00 2.369240000000000013e+00 9.509880000000000777e+00 4.750709999999999766e+00 1.299999999999999940e-03 1.188767999999999958e+01 7.127049999999999663e+00 2.380619999999999958e+00 1.426145999999999958e+01 9.503769999999999385e+00 1.969999999999999963e-03 2.374989999999999934e+00 1.188048999999999999e+01 2.373870000000000147e+00 4.750770000000000159e+00 9.501300000000000523e+00 4.749119999999999564e+00 7.133560000000000123e+00 1.187886999999999915e+01 2.373769999999999936e+00 9.514239999999999142e+00 9.501189999999999358e+00 1.580000000000000024e-03 1.188338000000000072e+01 1.189223999999999926e+01 2.378779999999999895e+00
4.725970000000000226e+00 9.551119999999999166e+00 2.112499999999999822e+00 1.186709999999999932e+00 1.189440000000000053e+00 3.567590000000000039e+00 3.566699999999999982e+00 3.559790000000000010e+00 3.564740000000000020e+00 3.567989999999999995e+00 1.190020000000000078e+00 1.182299999999999907e+00 1.185559999999999947e+00 3.567079999999999806e+00 1.191119999999999957e+00 5.943310000000000315e+00 1.189130000000000020e+00 3.563489999999999824e+00 8.321859999999999147e+00 3.564439999999999831e+00 3.568849999999999856e+00 8.317650000000000432e+00 1.186590000000000034e+00 1.184569999999999901e+00 5.940120000000000289e+00 3.570209999999999884e+00 1.192129999999999912e+00 1.069853999999999949e+01 1.194190000000000085e+00 3.566889999999999894e+00 1.307266000000000084e+01 3.559009999999999785e+00 3.566310000000000091e+00 1.308111000000000068e+01 1.192059999999999897e+00 1.188239999999999963e+00 1.069482999999999961e+01 3.563210000000000210e+00 1.184560000000000057e+00 1.186309999999999976e+00 5.937429999999999986e+00 3.571149999999999824e+00 3.568569999999999798e+00 8.321740000000000137e+00 3.567800000000000082e+00 3.561850000000000183e+00 5.944289999999999630e+00 1.186439999999999939e+00 1.196949999999999958e+00 8.319350000000000023e+00 1.183210000000000095e+00 5.945140000000000313e+00 5.940959999999999575e+00 3.567810000000000148e+00 8.321910000000000807e+00 8.319800000000000750e+00 3.567089999999999872e+00 8.319869999999999877e+00 5.941900000000000404e+00 1.188620000000000010e+00 5.941200000000000259e+00 8.318530000000000868e+00 1.192600000000000104e+00 1.069475000000000087e+01 5.943719999999999892e+00 3.565519999999999801e+00 1.307409999999999961e+01 8.320299999999999585e+00 3.569560000000000066e+00 1.307039999999999935e+01 5.943439999999999834e+00 1.188579999999999970e+00 1.069880000000000031e+01 8.316129999999999356e+00 1.185440000000000049e+00 1.184169999999999945e+00 1.069874000000000080e+01 3.567569999999999908e+00 3.563289999999999846e+00 1.307511000000000045e+01 3.563060000000000116e+00 3.567689999999999806e+00 1.069307000000000052e+01 1.190160000000000107e+00 1.187089999999999979e+00 1.307565999999999917e+01 1.190299999999999914e+00 5.942070000000000185e+00 1.069882999999999917e+01 3.561100000000000154e+00 8.323650000000000659e+00 1.306818999999999953e+01 3.561739999999999906e+00 8.315759999999999152e+00 1.069384999999999941e+01 1.191580000000000084e+00 5.942709999999999937e+00 1.307668999999999926e+01 1.192090000000000094e+00 1.069020000000000081e+01 1.069675999999999938e+01 3.562370000000000037e+00 1.307478000000000051e+01 1.308008000000000060e+01 3.563940000000000108e+00 1.307254999999999967e+01 1.069702000000000019e+01 1.187929999999999930e+00 1.069204000000000043e+01 1.307781999999999911e+01 1.187459999999999960e+00 1.425356000000000023e+01 1.425702000000000069e+01 1.379999999999999933e-03 2.379570000000000185e+00 2.376689999999999969e+00 2.389969999999999928e+00 4.751780000000000115e+00 1.425683000000000078e+01 4.745930000000000426e+00 7.145990000000000286e+00 2.382369999999999877e+00 2.375719999999999832e+00 9.505229999999999180e+00 7.400000000000000328e-03 4.746389999999999887e+00 1.188957000000000086e+01 2.380850000000000133e+00 2.369400000000000173e+00 1.425445000000000029e+01 4.751050000000000217e+00 4.753720000000000390e+00 2.373089999999999922e+00 7.131999999999999673e+00 2.389100000000000001e+00 4.761589999999999989e+00 4.760449999999999626e+00 4.751559999999999562e+00 7.136420000000000208e+00 7.123240000000000016e+00 2.361590000000000078e+00 9.511689999999999756e+00 4.747499999999999609e+00 2.579999999999999828e-03 1.189039999999999964e+01 7.123129999999999740e+00 2.384220000000000006e+00 1.426096000000000075e+01 9.499510000000000787e+00 3.939999999999999926e-03 2.373000000000000220e+00 1.187601000000000084e+01 2.370800000000000018e+00 4.747650000000000148e+00 9.494630000000000791e+00 4.744430000000000369e+00 7.136020000000000252e+00 1.187279000000000018e+01 2.370530000000000026e+00 9.520339999999999137e+00 9.494379999999999598e+00 3.150000000000000022e-03 1.188180999999999976e+01 1.189949999999999974e+01 2.380549999999999944e+00
4.726250000000000284e+00 9.544840000000000657e+00 2.122240000000000126e+00 1.185829999999999940e+00 1.189920000000000089e+00 3.568639999999999812e+00 3.567309999999999981e+00 3.556939999999999991e+00 3.564369999999999816e+00 3.569230000000000125e+00 1.190809999999999924e+00 1.179200000000000026e+00 1.184120000000000061e+00 3.567870000000000097e+00 1.192439999999999944e+00 5.943690000000000140e+00 1.189480000000000093e+00 3.562479999999999869e+00 8.323069999999999524e+00 3.563919999999999977e+00 3.570520000000000138e+00 8.316750000000000753e+00 1.185659999999999936e+00 1.182609999999999939e+00 5.938920000000000421e+00 3.572560000000000180e+00 1.193959999999999910e+00 1.069956999999999958e+01 1.197060000000000013e+00 3.567579999999999973e+00 1.307221000000000011e+01 3.555769999999999875e+00 3.566720000000000113e+00 1.308488999999999969e+01 1.193859999999999921e+00 1.188109999999999999e+00 1.069400000000000084e+01 3.562059999999999782e+00 1.182590000000000030e+00 1.185230000000000006e+00 5.934859999999999580e+00 3.573970000000000091e+00 3.569960000000000022e+00 8.322729999999999961e+00 3.569030000000000147e+00 3.560020000000000184e+00 5.945149999999999935e+00 1.185410000000000075e+00 1.201200000000000045e+00 8.319290000000000518e+00 1.180569999999999897e+00 5.946439999999999948e+00 5.940170000000000172e+00 3.568950000000000067e+00 8.323150000000000048e+00 8.319969999999999644e+00 3.567880000000000162e+00 8.320100000000000051e+00 5.941550000000000331e+00 1.188660000000000050e+00 5.940879999999999939e+00 8.317719999999999558e+00 1.194450000000000012e+00 1.069387000000000043e+01 5.944300000000000139e+00 3.565539999999999932e+00 1.307436000000000043e+01 8.320719999999999672e+00 3.571590000000000042e+00 1.306883000000000017e+01 5.943880000000000052e+00 1.188609999999999944e+00 1.069997000000000043e+01 8.314450000000000784e+00 1.183920000000000083e+00 1.182010000000000005e+00 1.069984999999999964e+01 3.568610000000000060e+00 3.562180000000000124e+00 1.307588999999999935e+01 3.561830000000000052e+00 3.568340000000000067e+00 1.069178999999999924e+01 1.190700000000000092e+00 1.186409999999999965e+00 1.307671999999999990e+01 1.191189999999999971e+00 5.941959999999999908e+00 1.070012000000000008e+01 3.559000000000000163e+00 8.325749999999999318e+00 1.306551999999999936e+01 3.559860000000000024e+00 8.313950000000000173e+00 1.069250000000000078e+01 1.193100000000000049e+00 5.942789999999999573e+00 1.307827999999999946e+01 1.193880000000000052e+00 1.068706000000000067e+01 1.069689999999999941e+01 3.560810000000000031e+00 1.307540000000000013e+01 1.308333000000000013e+01 3.563159999999999883e+00 1.307202999999999982e+01 1.069727999999999923e+01 1.187650000000000095e+00 1.068979999999999997e+01 1.307995999999999981e+01 1.186940000000000106e+00 1.424942000000000064e+01 1.425459999999999994e+01 2.050000000000000173e-03 2.380759999999999987e+00 2.376479999999999926e+00 2.396319999999999784e+00 4.750729999999999897e+00 1.425425000000000075e+01 4.741939999999999600e+00 7.153369999999999784e+00 2.384990000000000165e+00 2.375080000000000080e+00 9.503830000000000666e+00 1.106000000000000039e-02 4.742609999999999992e+00 1.189184999999999981e+01 2.382699999999999818e+00 2.365619999999999834e+00 1.425065999999999988e+01 4.749600000000000044e+00 4.753599999999999604e+00 2.371249999999999858e+00 7.132590000000000430e+00 2.395059999999999967e+00 4.765290000000000248e+00 4.763700000000000045e+00 4.750339999999999563e+00 7.138989999999999725e+00 7.119530000000000136e+00 2.354109999999999925e+00 9.513479999999999492e+00 4.744349999999999845e+00 3.840000000000000097e-03 1.189309000000000083e+01 7.119270000000000209e+00 2.387779999999999792e+00 1.426051999999999964e+01 9.495309999999999917e+00 5.899999999999999863e-03 2.371090000000000142e+00 1.187153999999999954e+01 2.367809999999999970e+00 4.744629999999999903e+00 9.488099999999999312e+00 4.739959999999999951e+00 7.138349999999999973e+00 1.186675999999999931e+01 2.367319999999999869e+00 9.526279999999999859e+00 9.487690000000000623e+00 4.729999999999999830e-03 1.188025999999999982e+01 1.190671000000000035e+01 2.382299999999999862e+00
4.727360000000000007e+00 9.537660000000000693e+00 2.134459999999999802e+00 1.184940000000000104e+00 1.190399999999999903e+00 3.569700000000000095e+00 3.567940000000000111e+00 3.554110000000000102e+00 3.564020000000000188e+00 3.570460000000000189e+00 1.191610000000000058e+00 1.176109999999999989e+00 1.182679999999999954e+00 3.568649999999999878e+00 1.193769999999999998e+00 5.944090000000000096e+00 1.189840000000000009e+00 3.561469999999999914e+00 8.324279999999999902e+00 3.563400000000000123e+00 3.572200000000000042e+00 8.315839999999999677e+00 1.184739999999999904e+00 1.180649999999999977e+00 5.937719999999999665e+00 3.574889999999999901e+00 1.195780000000000065e+00 1.070059999999999967e+01 1.199929999999999941e+00 3.568259999999999987e+00 1.307177000000000078e+01 3.552540000000000031e+00 3.567130000000000134e+00 1.308866000000000085e+01 1.195670000000000011e+00 1.187980000000000036e+00 1.069317000000000029e+01 3.560900000000000176e+00 1.180630000000000068e+00 1.184150000000000036e+00 5.932290000000000063e+00 3.576799999999999979e+00 3.571229999999999905e+00 8.323600000000000776e+00 3.570310000000000095e+00 3.558190000000000186e+00 5.946010000000000240e+00 1.184379999999999988e+00 1.205430000000000001e+00 8.319240000000000634e+00 1.177929999999999922e+00 5.947759999999999714e+00 5.939390000000000391e+00 3.570089999999999986e+00 8.324379999999999669e+00 8.320130000000000692e+00 3.568670000000000009e+00 8.320349999999999469e+00 5.941189999999999749e+00 1.188690000000000024e+00 5.940780000000000172e+00 8.316679999999999851e+00 1.196159999999999890e+00 1.069298000000000037e+01 5.944880000000000386e+00 3.565570000000000128e+00 1.307461999999999946e+01 8.321130000000000138e+00 3.573609999999999953e+00 1.306727000000000061e+01 5.944309999999999761e+00 1.188649999999999984e+00 1.070115999999999978e+01 8.312739999999999796e+00 1.182430000000000092e+00 1.179829999999999934e+00 1.070095000000000063e+01 3.569659999999999833e+00 3.561059999999999892e+00 1.307666000000000039e+01 3.560589999999999922e+00 3.568709999999999827e+00 1.069079999999999941e+01 1.191040000000000099e+00 1.185710000000000042e+00 1.307778000000000063e+01 1.192080000000000028e+00 5.941939999999999777e+00 1.070148999999999972e+01 3.556989999999999874e+00 8.327859999999999374e+00 1.306284999999999918e+01 3.557980000000000143e+00 8.312179999999999680e+00 1.069111000000000011e+01 1.194590000000000041e+00 5.942870000000000097e+00 1.307986000000000004e+01 1.195670000000000011e+00 1.068393000000000015e+01 1.069705000000000084e+01 3.559239999999999959e+00 1.307600000000000051e+01 1.308658999999999928e+01 3.562370000000000037e+00 1.307150999999999996e+01 1.069755999999999929e+01 1.187370000000000037e+00 1.068755999999999950e+01 1.308210000000000051e+01 1.186409999999999965e+00 1.424540000000000006e+01 1.425225000000000009e+01 2.700000000000000143e-03 2.381899999999999906e+00 2.376219999999999999e+00 2.402499999999999858e+00 4.749729999999999563e+00 1.425168000000000035e+01 4.737989999999999924e+00 7.160599999999999632e+00 2.387560000000000127e+00 2.374439999999999884e+00 9.502459999999999241e+00 1.465999999999999942e-02 4.738870000000000360e+00 1.189409000000000027e+01 2.384510000000000129e+00 2.361870000000000136e+00 1.424685999999999986e+01 4.748149999999999871e+00 4.753519999999999968e+00 2.369510000000000005e+00 7.133250000000000313e+00 2.400949999999999918e+00 4.768849999999999589e+00 4.766910000000000203e+00 4.749139999999999695e+00 7.141449999999999854e+00 7.115969999999999906e+00 2.346880000000000077e+00 9.515209999999999724e+00 4.741290000000000227e+00 5.069999999999999854e-03 1.189572000000000074e+01 7.115540000000000198e+00 2.391300000000000203e+00 1.426013999999999982e+01 9.491199999999999193e+00 7.839999999999999747e-03 2.369270000000000209e+00 1.186711999999999989e+01 2.364939999999999820e+00 4.741769999999999818e+00 9.481769999999999143e+00 4.735750000000000348e+00 7.140530000000000044e+00 1.186084999999999923e+01 2.364139999999999908e+00 9.532030000000000669e+00 9.481170000000000542e+00 6.300000000000000044e-03 1.187872999999999912e+01 1.191380999999999979e+01 2.383999999999999897e+00
4.729190000000000005e+00 9.529700000000000060e+00 2.149049999999999905e+00 1.184050000000000047e+00 1.190870000000000095e+00 3.570770000000000000e+00 3.568599999999999994e+00 3.551309999999999967e+00 3.563680000000000181e+00 3.571689999999999809e+00 1.192420000000000035e+00 1.173030000000000017e+00 1.181249999999999911e+00 3.569420000000000037e+00 1.195109999999999895e+00 5.944499999999999673e+00 1.190209999999999990e+00 3.560439999999999827e+00 8.325499999999999901e+00 3.562879999999999825e+00 3.573890000000000011e+00 8.314939999999999998e+00 1.183810000000000029e+00 1.178679999999999950e+00 5.936539999999999928e+00 3.577210000000000001e+00 1.197619999999999907e+00 1.070163999999999938e+01 1.202820000000000000e+00 3.568929999999999936e+00 1.307133999999999929e+01 3.549300000000000122e+00 3.567540000000000155e+00 1.309243000000000023e+01 1.197480000000000100e+00 1.187850000000000072e+00 1.069236000000000075e+01 3.559730000000000061e+00 1.178670000000000107e+00 1.183060000000000000e+00 5.929710000000000036e+00 3.579629999999999868e+00 3.572389999999999954e+00 8.324350000000000804e+00 3.571629999999999860e+00 3.556369999999999809e+00 5.946860000000000035e+00 1.183349999999999902e+00 1.209670000000000023e+00 8.319179999999999353e+00 1.175289999999999946e+00 5.949089999999999989e+00 5.938609999999999722e+00 3.571210000000000218e+00 8.325599999999999667e+00 8.320280000000000342e+00 3.569440000000000168e+00 8.320639999999999148e+00 5.940789999999999793e+00 1.188690000000000024e+00 5.940900000000000070e+00 8.315409999999999968e+00 1.197729999999999961e+00 1.069209000000000032e+01 5.945450000000000124e+00 3.565599999999999881e+00 1.307487000000000066e+01 8.321529999999999205e+00 3.575629999999999864e+00 1.306570999999999927e+01 5.944740000000000357e+00 1.188679999999999959e+00 1.070238999999999940e+01 8.311009999999999565e+00 1.180960000000000010e+00 1.177629999999999955e+00 1.070204000000000022e+01 3.570720000000000116e+00 3.559919999999999973e+00 1.307742999999999967e+01 3.559340000000000170e+00 3.568799999999999972e+00 1.069008000000000003e+01 1.191189999999999971e+00 1.185019999999999962e+00 1.307884999999999920e+01 1.192970000000000086e+00 5.942009999999999792e+00 1.070293999999999990e+01 3.555050000000000043e+00 8.329969999999999430e+00 1.306018000000000079e+01 3.556099999999999817e+00 8.310449999999999449e+00 1.068969000000000058e+01 1.196050000000000058e+00 5.942960000000000242e+00 1.308145000000000024e+01 1.197459999999999969e+00 1.068079999999999963e+01 1.069721000000000011e+01 3.557669999999999888e+00 1.307658999999999949e+01 1.308982999999999919e+01 3.561580000000000190e+00 1.307098000000000049e+01 1.069785000000000075e+01 1.187110000000000110e+00 1.068532000000000082e+01 1.308426000000000045e+01 1.185880000000000045e+00 1.424151999999999951e+01 1.425000999999999962e+01 3.340000000000000087e-03 2.382950000000000124e+00 2.375910000000000188e+00 2.408459999999999823e+00 4.748789999999999623e+00 1.424915000000000020e+01 4.734099999999999753e+00 7.167650000000000077e+00 2.390080000000000204e+00 2.373790000000000067e+00 9.501099999999999213e+00 1.819000000000000131e-02 4.735170000000000101e+00 1.189628000000000085e+01 2.386249999999999982e+00 2.358169999999999877e+00 1.424305000000000021e+01 4.746699999999999697e+00 4.753470000000000084e+00 2.367890000000000050e+00 7.133960000000000079e+00 2.406740000000000101e+00 4.772219999999999906e+00 4.770069999999999588e+00 4.747959999999999958e+00 7.143779999999999575e+00 7.112589999999999968e+00 2.339960000000000040e+00 9.516870000000000829e+00 4.738360000000000127e+00 6.270000000000000399e-03 1.189828999999999937e+01 7.111950000000000216e+00 2.394760000000000222e+00 1.425985000000000014e+01 9.487209999999999255e+00 9.759999999999999579e-03 2.367550000000000043e+00 1.186276999999999937e+01 2.362190000000000012e+00 4.739110000000000156e+00 9.475720000000000809e+00 4.731849999999999667e+00 7.142529999999999824e+00 1.185511999999999944e+01 2.361029999999999962e+00 9.537539999999999907e+00 9.474890000000000256e+00 7.860000000000000667e-03 1.187721999999999944e+01 1.192076999999999920e+01 2.385660000000000114e+00
4.731600000000000250e+00 9.521100000000000563e+00 2.165890000000000093e+00 1.183140000000000081e+00 1.191330000000000000e+00 3.571860000000000035e+00 3.569280000000000008e+00 3.548519999999999897e+00 3.563379999999999992e+00 3.572909999999999808e+00 1.193240000000000078e+00 1.169960000000000111e+00 1.179829999999999934e+00 3.570180000000000131e+00 1.196460000000000079e+00 5.944919999999999760e+00 1.190600000000000103e+00 3.559410000000000185e+00 8.326729999999999521e+00 3.562370000000000037e+00 3.575569999999999915e+00 8.314040000000000319e+00 1.182879999999999932e+00 1.176719999999999988e+00 5.935369999999999813e+00 3.579520000000000035e+00 1.199459999999999971e+00 1.070269000000000048e+01 1.205719999999999903e+00 3.569589999999999819e+00 1.307089999999999996e+01 3.546069999999999833e+00 3.567950000000000177e+00 1.309619999999999962e+01 1.199310000000000098e+00 1.187720000000000109e+00 1.069154999999999944e+01 3.558559999999999945e+00 1.176719999999999988e+00 1.181959999999999900e+00 5.927130000000000010e+00 3.582469999999999821e+00 3.573420000000000041e+00 8.324970000000000425e+00 3.572999999999999954e+00 3.554530000000000189e+00 5.947709999999999830e+00 1.182320000000000038e+00 1.213910000000000045e+00 8.319110000000000227e+00 1.172670000000000101e+00 5.950450000000000017e+00 5.937850000000000072e+00 3.572299999999999809e+00 8.326819999999999666e+00 8.320410000000000750e+00 3.570199999999999818e+00 8.320949999999999847e+00 5.940360000000000085e+00 1.188669999999999893e+00 5.941250000000000142e+00 8.313919999999999533e+00 1.199149999999999938e+00 1.069119000000000064e+01 5.946010000000000240e+00 3.565640000000000143e+00 1.307510000000000083e+01 8.321920000000000428e+00 3.577640000000000153e+00 1.306414999999999971e+01 5.945159999999999556e+00 1.188700000000000090e+00 1.070365999999999929e+01 8.309240000000000848e+00 1.179519999999999902e+00 1.175419999999999909e+00 1.070312000000000019e+01 3.571790000000000020e+00 3.558759999999999923e+00 1.307817999999999969e+01 3.558079999999999909e+00 3.568639999999999812e+00 1.068961000000000006e+01 1.191149999999999931e+00 1.184320000000000039e+00 1.307991999999999955e+01 1.193859999999999921e+00 5.942149999999999821e+00 1.070447000000000060e+01 3.553199999999999914e+00 8.332079999999999487e+00 1.305751000000000062e+01 3.554209999999999869e+00 8.308770000000000877e+00 1.068821999999999939e+01 1.197470000000000034e+00 5.943050000000000388e+00 1.308304000000000045e+01 1.199240000000000084e+00 1.067769000000000013e+01 1.069738000000000078e+01 3.556090000000000195e+00 1.307717000000000063e+01 1.309307000000000087e+01 3.560770000000000213e+00 1.307042999999999999e+01 1.069815000000000005e+01 1.186860000000000026e+00 1.068305999999999933e+01 1.308642000000000039e+01 1.185349999999999904e+00 1.423783000000000065e+01 1.424788000000000032e+01 3.959999999999999978e-03 2.383919999999999817e+00 2.375539999999999985e+00 2.414140000000000175e+00 4.747910000000000075e+00 1.424666999999999994e+01 4.730290000000000106e+00 7.174459999999999837e+00 2.392520000000000202e+00 2.373149999999999871e+00 9.499779999999999447e+00 2.162000000000000033e-02 4.731510000000000105e+00 1.189840000000000053e+01 2.387910000000000199e+00 2.354499999999999815e+00 1.423921999999999954e+01 4.745239999999999903e+00 4.753459999999999575e+00 2.366400000000000059e+00 7.134719999999999729e+00 2.412420000000000009e+00 4.775350000000000428e+00 4.773130000000000095e+00 4.746800000000000352e+00 7.145950000000000024e+00 7.109429999999999694e+00 2.333400000000000141e+00 9.518449999999999633e+00 4.735579999999999679e+00 7.409999999999999920e-03 1.190077999999999925e+01 7.108550000000000146e+00 2.398149999999999782e+00 1.425963999999999920e+01 9.483359999999999346e+00 1.165000000000000063e-02 2.365940000000000154e+00 1.185853000000000002e+01 2.359579999999999789e+00 4.736699999999999910e+00 9.470000000000000639e+00 4.728279999999999816e+00 7.144339999999999691e+00 1.184962999999999944e+01 2.357990000000000030e+00 9.542740000000000222e+00 9.468890000000000029e+00 9.409999999999999962e-03 1.187574000000000041e+01 1.192756999999999934e+01 2.387249999999999872e+00