-1.894952881600000012e+02
-1.894795314600000040e+02
-1.894639648899999997e+02
-1.894482497799999976e+02
-1.894320033900000055e+02
-1.894149046899999860e+02
-1.893967183700000021e+02
-1.893773118000000011e+02
-1.893568681099999935e+02
-1.893361471499999880e+02
-1.893159657799999991e+02
-1.892971416700000020e+02
-1.893644571499999927e+02
-1.896878610200000139e+02
-1.899099711800000136e+02
-1.900351493899999866e+02
-1.902376879100000053e+02
-1.904642434700000138e+02
-1.905404409200000089e+02
-1.904815183000000047e+02
-1.903777116400000011e+02
-1.904101483199999905e+02
-1.904581965499999967e+02
-1.904005829699999879e+02
-1.901194870799999990e+02
-1.900269499100000132e+02
-1.900319006599999909e+02
-1.900720480399999985e+02
-1.900958542399999942e+02
-1.900806036699999879e+02
-1.900334015500000078e+02
-1.899608104499999968e+02
-1.898536390600000061e+02
-1.898775355600000125e+02
-1.899394450000000063e+02
-1.900663664399999959e+02
-1.900470811600000047e+02
-1.899471249700000044e+02
-1.900128764799999885e+02
-1.902368387600000119e+02
-1.902801096999999970e+02
-1.902874193300000059e+02
-1.902763035399999865e+02
-1.903286446300000136e+02
-1.904469001200000093e+02
-1.904498578099999975e+02
-1.904148651600000051e+02
-1.904449353100000053e+02
-1.905422738100000117e+02
-1.906526273700000047e+02
-1.907359457400000053e+02
-1.907936394300000131e+02
-1.907966945100000089e+02
-1.907298966699999880e+02
-1.906174300700000117e+02
-1.906928461400000003e+02
-1.907885480900000061e+02
-1.906895253600000046e+02
-1.906133427999999981e+02
-1.906511243600000114e+02
-1.906193146900000102e+02
-1.904534981699999889e+02
-1.904060900199999935e+02
-1.903766819200000100e+02
-1.906355767599999922e+02
-1.907004787200000067e+02
-1.904939367499999889e+02
-1.905018512499999872e+02
-1.906353870899999947e+02
-1.904574686299999939e+02
-1.902499620000000107e+02
-1.903449252100000137e+02
-1.903084489599999927e+02
-1.900124355199999968e+02
-1.899230330400000071e+02
-1.898598642299999995e+02
-1.896717059000000063e+02
-1.899153024299999970e+02
-1.898552039900000068e+02
-1.897543571500000041e+02
-1.897833313499999974e+02
-1.896837763800000118e+02
-1.898226606199999935e+02
-1.903723285700000076e+02
-1.905652890199999945e+02
-1.906136626699999965e+02
-1.911719359900000086e+02
-1.912842733900000098e+02
-1.914190159300000005e+02
-1.913978508499999975e+02
-1.913742752199999870e+02
-1.912997605699999895e+02
-1.913003234299999917e+02
-1.914543430800000010e+02
-1.912539027200000135e+02
-1.910635003200000028e+02
-1.912116455599999938e+02
-1.912059735599999897e+02
-1.912058888900000113e+02
-1.912837432800000101e+02
-1.912999419200000091e+02
-1.914195280799999921e+02
-1.916394406100000083e+02
-1.916037423399999966e+02
-1.913621304399999872e+02
-1.913321183399999939e+02
-1.912928278500000090e+02
-1.911242218900000012e+02
-1.910047503600000027e+02
-1.910983657300000118e+02
-1.909875021400000037e+02
-1.908489801000000057e+02
-1.908980442700000140e+02
-1.910209721699999932e+02
-1.912295565500000123e+02
-1.912619242300000053e+02
-1.912590169899999921e+02
-1.913171789099999955e+02
-1.913255628999999942e+02
-1.914076814500000125e+02
-1.914885374099999922e+02
-1.914383446200000094e+02
-1.913738494600000024e+02
-1.914069507499999929e+02
-1.914572098300000107e+02
-1.912463119399999982e+02
-1.909328048099999933e+02
-1.909944151699999964e+02
-1.910862535699999967e+02
-1.910979514699999982e+02
-1.910781332800000030e+02
-1.908656389699999920e+02
-1.905842349099999922e+02
-1.907857188000000122e+02
-1.909994706800000017e+02
-1.909462257799999918e+02
-1.910451427200000012e+02
-1.911868115499999874e+02
-1.911143120799999906e+02
-1.910991649400000085e+02
-1.911219087999999999e+02
-1.909846148299999982e+02
-1.909295855299999971e+02
-1.912503795499999910e+02
-1.913829188800000054e+02
-1.915086617800000113e+02
-1.916534841300000096e+02
-1.917379112399999883e+02
-1.916882554999999968e+02
-1.916151973499999883e+02
-1.916747160699999881e+02
-1.915170296899999869e+02
-1.914219764000000055e+02
-1.914713834000000077e+02
-1.913849524599999938e+02
-1.912064650599999993e+02
-1.912481921000000114e+02
-1.913645303600000034e+02
-1.915500364300000058e+02
-1.916250284600000100e+02
-1.917238054199999908e+02
-1.917650295699999958e+02
-1.916591145499999982e+02
-1.917212812100000008e+02
-1.917025959000000057e+02
-1.915540386099999921e+02
-1.915636874399999954e+02
-1.916366226899999958e+02
-1.917497821700000031e+02
-1.917862632199999950e+02
-1.917896753100000069e+02
-1.917993190900000116e+02
-1.916558613800000046e+02
-1.916900005900000110e+02
-1.917958314599999881e+02
-1.917182281300000000e+02
-1.916747209799999894e+02
-1.917028380000000141e+02
-1.914970892400000082e+02
-1.914023065599999995e+02
-1.914725009599999908e+02
-1.912449362799999903e+02
-1.912396861800000067e+02
-1.914264507700000024e+02
-1.912481674999999939e+02
-1.912905866099999912e+02
-1.915578407499999969e+02
-1.915371298000000024e+02
-1.914744195099999899e+02
-1.914470137099999931e+02
-1.913937673099999870e+02
-1.913378739999999993e+02
-1.913051464300000077e+02
-1.912369160300000033e+02
-1.910965652099999943e+02
-1.909362251100000094e+02
-1.910823917399999914e+02
-1.912609922100000119e+02
-1.912265451099999893e+02
-1.913723242199999959e+02
-1.914120337399999983e+02
-1.913135681699999964e+02
-1.914452813999999989e+02
-1.916514477999999997e+02
-1.915756603499999926e+02
-1.914672634800000139e+02
-1.915172122099999967e+02
-1.915078274299999919e+02
-1.916527048499999921e+02
-1.919023380900000006e+02
-1.919404376100000036e+02
-1.917267864400000121e+02
-1.917283728900000028e+02
-1.918173016499999903e+02
-1.917577215400000057e+02
-1.916342220299999894e+02
-1.914603867200000025e+02
-1.912854022900000075e+02
-1.912620060200000012e+02
-1.911164993700000139e+02
-1.909780638999999951e+02
-1.909373406599999896e+02
-1.908906415200000026e+02
-1.910748798600000100e+02
-1.912239812299999926e+02
-1.910404087500000117e+02
-1.910087572299999863e+02
-1.911230875500000082e+02
-1.910953134400000124e+02
-1.910953572900000097e+02
-1.910838939100000005e+02
-1.910289256499999908e+02
-1.909747206300000073e+02
-1.909867801100000122e+02
-1.910369113000000141e+02
-1.911551967499999876e+02
-1.913679985900000133e+02
-1.914254240399999958e+02
-1.914866376399999979e+02
-1.916269369899999901e+02
-1.916688757299999963e+02
-1.917464817599999947e+02
-1.917391475599999922e+02
-1.915957252599999947e+02
-1.915335832300000050e+02
-1.915125446399999873e+02
-1.915109198600000013e+02
-1.916188673899999912e+02
-1.915916390600000057e+02
-1.914933510500000011e+02
-1.916284848999999895e+02
-1.918018452100000104e+02
-1.919056375300000070e+02
-1.918870798799999875e+02
-1.917591209999999933e+02
-1.917035090900000114e+02
-1.917111955400000056e+02
-1.916895354399999860e+02
-1.916876346599999863e+02
-1.918116703000000030e+02
-1.919310587500000054e+02
-1.919349505200000010e+02
-1.917181452499999921e+02
-1.915355287700000133e+02
-1.916436507100000028e+02
-1.919452515099999914e+02
-1.921100812399999995e+02
-1.920456298699999991e+02
-1.919530234000000064e+02
-1.918155283399999860e+02
-1.917670092699999884e+02
-1.919528801699999860e+02
-1.921040543000000014e+02
-1.918088070299999970e+02
-1.917585988399999906e+02
-1.915366807499999879e+02
-1.915922123400000032e+02
-1.916687409300000127e+02
-1.916591800699999908e+02
-1.915106824099999869e+02
-1.914323739499999988e+02
-1.915601877000000002e+02
-1.917128864299999975e+02
-1.918162250299999982e+02
-1.919159918699999992e+02
-1.917170621200000085e+02
-1.916588544299999910e+02
-1.917982183100000100e+02
-1.918793052899999907e+02
-1.918928359900000089e+02
-1.918352844300000015e+02
-1.918269822800000100e+02
-1.918013247799999874e+02
-1.917737135499999965e+02
-1.917903180600000042e+02
-1.917563128600000084e+02
-1.913876497400000005e+02
-1.914188088299999890e+02
-1.914332831199999987e+02
-1.913684987100000114e+02
-1.913377767000000063e+02
-1.912848243999999909e+02
-1.911856918500000120e+02
-1.909363562999999999e+02
-1.908222200799999939e+02
-1.909993191599999989e+02
-1.911609649199999978e+02
-1.916268809299999987e+02
-1.915669849500000055e+02
-1.918360533299999986e+02
-1.916533975099999907e+02
-1.916417988599999944e+02
-1.916360676099999978e+02
-1.915905436699999882e+02
-1.916475044700000012e+02
