7.534110000000000529e-01 -7.811949999999999728e-01 1.909740999999999911e+00 -5.657999999999999835e-03 1.158999999999999961e-02 -5.636999999999999650e-03 -1.101899999999999928e-02 -2.534199999999999994e-02 2.950000000000000148e-04 -1.179099999999999940e-02 2.439300000000000149e-02 1.962999999999999901e-03 -7.867999999999999994e-03 -1.255900000000000072e-02 4.745000000000000086e-03 1.391799999999999982e-02 2.399099999999999844e-02 1.154999999999999994e-03 1.152999999999999945e-03 -1.116900000000000011e-02 -3.050000000000000194e-03 1.899999999999999996e-03 9.268999999999999462e-03 3.983000000000000429e-03 1.441100000000000020e-02 -2.510199999999999931e-02 2.469999999999999865e-04 2.504000000000000149e-03 -1.387999999999999911e-03 2.294000000000000032e-03 1.686999999999999915e-03 -2.498999999999999919e-03 2.115999999999999825e-03 -7.410000000000000137e-04 9.629999999999999888e-04 -4.279999999999999950e-03 1.753000000000000001e-03 -1.828999999999999897e-03 -4.596000000000000259e-03 -5.715200000000000141e-02 -5.230499999999999733e-02 2.856699999999999864e-02 -9.271129999999999649e-01 -9.969120000000000203e-01 6.368409999999999904e-01 2.245499999999999927e-02 -8.901699999999999890e-02 -3.511100000000000332e-02 -9.120000000000000329e-02 1.941700000000000023e-02 -3.361600000000000005e-02 -1.732200000000000059e-02 -8.920200000000000351e-02 3.488399999999999834e-02 8.820500000000000562e-02 1.691600000000000048e-02 3.472700000000000092e-02 5.810400000000000287e-02 -5.836100000000000315e-02 -3.057700000000000001e-02 2.582333000000000212e+00 -2.636467000000000116e+00 -1.430074000000000067e+00 1.100600000000000016e-02 -1.474000000000000050e-03 -3.020000000000000115e-03 -2.339300000000000060e-02 -1.412399999999999940e-02 1.325000000000000006e-03 -8.717000000000000789e-03 -2.273999999999999980e-03 3.820000000000000045e-03 2.523800000000000002e-02 -1.472399999999999924e-02 7.899999999999999579e-05 -9.380399999999999849e-02 -2.263899999999999940e-02 3.540299999999999697e-02 2.272599999999999967e-02 9.329900000000000693e-02 3.546799999999999953e-02 -3.467849000000000181e+00 3.391700999999999855e+00 -2.152770999999999990e+00 -6.614399999999999447e-02 6.645399999999999918e-02 -3.287400000000000044e-02 1.064299000000000106e+00 9.887340000000000018e-01 7.372680000000000344e-01 5.354899999999999938e-02 5.883800000000000141e-02 3.043200000000000072e-02 9.022800000000000264e-02 -2.417100000000000151e-02 -3.604299999999999865e-02 -2.162199999999999886e-02 9.289200000000000235e-02 -3.478500000000000342e-02 2.553800000000000167e-02 1.090299999999999950e-02 2.489999999999999809e-04 -1.118800000000000003e-02 6.151000000000000217e-03 -5.513999999999999804e-03 -2.388900000000000051e-02 1.156100000000000010e-02 2.005999999999999971e-03 1.249100000000000037e-02 8.259999999999999981e-03 4.695999999999999654e-03 -1.511499999999999996e-02 1.571900000000000033e-02 -1.522100000000000015e-02 -3.093200000000000116e-02 -9.990000000000000616e-03 1.193999999999999966e-03 9.490999999999999437e-03 -5.034099999999999686e-02 -1.812999999999999941e-03 2.177600000000000022e-02 -1.132700000000000026e-02 7.339999999999999520e-04 2.765000000000000097e-03 1.529100000000000077e-02 1.420399999999999961e-02 8.524000000000000327e-03 -8.082999999999999907e-03 1.201999999999999943e-03 -1.454599999999999990e-02 -3.190000000000000127e-03 1.396700000000000025e-02 1.064060000000000006e-01 1.211070000000000063e-01 -4.023499999999999993e-02 1.127799999999999983e-02 6.422400000000000331e-02 -2.364999999999999915e-03 -9.775699999999999668e-02 9.807599999999999651e-02 7.020700000000000551e-02 6.310999999999999770e-03 -6.989000000000000420e-03 -1.526199999999999952e-02 1.121699999999999954e-02 -2.193099999999999911e-02 9.600000000000000243e-04 5.146400000000000280e-02 -9.282000000000000320e-03 -1.606999999999999922e-03 8.466700000000000614e-02 -8.340400000000000591e-02 7.160800000000000498e-02 1.413999999999999979e-02 1.211199999999999950e-02 2.435410000000000075e-01 -1.231880000000000058e-01 -1.079770000000000035e-01 -4.053099999999999759e-02 -6.358400000000000163e-02 -1.093799999999999981e-02 -2.540999999999999856e-03 1.006400000000000003e-02 3.126400000000000012e-02 1.012000000000000096e-03
7.291170000000000151e-01 -7.620310000000000139e-01 1.895601000000000091e+00 -3.305700000000000305e-02 -2.179199999999999887e-02 2.409700000000000036e-02 5.693499999999999950e-02 4.327999999999999903e-02 5.954700000000000271e-02 -3.151700000000000335e-02 4.300400000000000056e-02 2.955899999999999847e-02 1.761800000000000171e-02 -3.557099999999999845e-02 3.190400000000000180e-02 4.427600000000000285e-02 5.279799999999999771e-02 -2.348700000000000093e-02 2.042700000000000071e-02 5.823000000000000051e-03 7.701000000000000380e-03 4.375000000000000416e-03 1.072999999999999995e-02 7.474999999999999874e-03 4.761900000000000160e-02 -5.817499999999999755e-02 1.972000000000000142e-02 2.540699999999999903e-02 2.185300000000000090e-02 -2.465300000000000130e-02 1.124299999999999952e-02 1.028600000000000000e-02 3.703999999999999827e-03 -2.314199999999999938e-02 9.997000000000000677e-03 1.572999999999999962e-03 2.659200000000000105e-02 -2.284600000000000172e-02 1.548800000000000003e-02 -5.167800000000000171e-02 -4.680800000000000238e-02 2.300100000000000061e-02 -1.019687000000000010e+00 -1.090500999999999943e+00 5.968360000000000332e-01 1.269900000000000022e-02 -8.182499999999999496e-02 -1.951400000000000010e-02 -8.138199999999999601e-02 7.558999999999999747e-03 -4.220999999999999926e-03 3.175499999999999851e-02 -3.428400000000000197e-02 -2.262499999999999928e-02 4.650900000000000173e-02 -2.600200000000000081e-02 -7.400999999999999593e-03 1.195080000000000031e-01 -1.203930000000000000e-01 -8.457800000000000040e-02 2.579593000000000025e+00 -2.618597999999999981e+00 -1.466420000000000057e+00 -1.076500000000000026e-02 -2.447399999999999923e-02 2.017700000000000049e-02 -4.618900000000000089e-02 -3.705100000000000060e-02 -1.876900000000000096e-02 1.359699999999999971e-02 -2.651200000000000084e-02 -9.254000000000000073e-03 1.086320000000000063e-01 -9.298499999999999821e-02 7.090799999999999881e-02 -1.181600000000000011e-01 -4.743599999999999900e-02 4.815099999999999936e-02 -2.934200000000000003e-02 3.757599999999999829e-02 -9.974999999999999492e-03 -3.406185999999999936e+00 3.349972999999999868e+00 -2.181271000000000182e+00 -5.967499999999999888e-02 5.632299999999999807e-02 -3.538499999999999979e-02 1.022026000000000101e+00 9.511220000000000230e-01 7.759150000000000214e-01 4.519499999999999906e-02 5.069699999999999901e-02 2.056600000000000095e-02 1.958540000000000003e-01 -1.303749999999999909e-01 -1.233510000000000023e-01 -6.113999999999999643e-03 7.141699999999999438e-02 -3.873399999999999760e-02 5.107300000000000034e-02 3.674199999999999688e-02 -1.104300000000000073e-02 -3.926799999999999735e-02 -2.864500000000000032e-02 -1.968400000000000011e-02 -5.450399999999999689e-02 4.187599999999999656e-02 3.092400000000000010e-02 -7.886000000000000648e-03 2.760400000000000006e-02 -1.166900000000000055e-02 5.351199999999999707e-02 5.478700000000000236e-02 -2.090499999999999997e-02 -5.456300000000000039e-02 -2.942699999999999830e-02 -9.391099999999999448e-02 3.056000000000000036e-02 -2.400400000000000103e-02 2.515299999999999828e-02 -6.770299999999999929e-02 -3.485699999999999910e-02 1.330999999999999935e-03 1.306299999999999996e-02 -2.172200000000000172e-02 2.883399999999999852e-02 -1.573400000000000146e-02 -3.450299999999999895e-02 1.789200000000000165e-02 -1.627800000000000080e-02 -1.624000000000000010e-03 2.491200000000000012e-02 1.333789999999999976e-01 1.148160000000000014e-01 -7.210600000000000342e-02 -7.231700000000000628e-02 2.374000000000000069e-02 3.144999999999999792e-03 -1.287030000000000118e-01 1.526919999999999944e-01 1.829210000000000003e-01 -2.415000000000000133e-02 4.778999999999999915e-02 -2.624100000000000044e-02 -2.216600000000000167e-02 4.970000000000000112e-02 -2.674899999999999847e-02 7.348899999999999877e-02 4.347700000000000176e-02 -1.126800000000000024e-02 1.094019999999999992e-01 -3.103200000000000056e-02 1.078159999999999952e-01 9.261900000000000688e-02 1.204660000000000036e-01 3.059790000000000010e-01 -1.669589999999999963e-01 -4.987000000000000113e-03 -5.686000000000000082e-03 -1.559800000000000075e-01 9.046200000000000074e-02 1.150000000000000035e-04 1.878499999999999961e-02 -3.601700000000000040e-02 -2.128800000000000137e-02
6.787450000000000427e-01 -7.157229999999999981e-01 1.858476999999999935e+00 -5.851800000000000057e-02 -5.554300000000000209e-02 5.289399999999999658e-02 1.245689999999999992e-01 1.113490000000000035e-01 1.181529999999999941e-01 -5.059799999999999714e-02 5.776900000000000091e-02 5.714700000000000335e-02 4.484300000000000092e-02 -5.834000000000000297e-02 5.846699999999999814e-02 7.233799999999999952e-02 8.037500000000000200e-02 -4.608000000000000290e-02 3.856400000000000106e-02 2.442000000000000073e-02 1.487100000000000054e-02 5.930000000000000375e-03 1.158600000000000081e-02 1.009600000000000081e-02 8.123700000000000365e-02 -9.143500000000000238e-02 3.644900000000000223e-02 4.510000000000000120e-02 4.126099999999999907e-02 -5.335299999999999765e-02 2.105900000000000133e-02 2.792499999999999843e-02 4.290000000000000410e-03 -3.581600000000000061e-02 2.352500000000000077e-02 7.298999999999999932e-03 5.172399999999999914e-02 -4.440999999999999809e-02 3.581800000000000261e-02 -4.946099999999999802e-02 -4.379700000000000260e-02 1.808200000000000085e-02 -1.121482000000000090e+00 -1.190773999999999999e+00 5.591159999999999464e-01 4.654000000000000151e-03 -7.642100000000000282e-02 -2.003000000000000006e-03 -6.755700000000000593e-02 -9.433000000000000412e-03 2.500499999999999945e-02 8.370500000000000163e-02 1.959199999999999831e-02 -7.904999999999999527e-02 5.360000000000000181e-03 -6.658699999999999342e-02 -4.814899999999999736e-02 1.817469999999999919e-01 -1.835320000000000007e-01 -1.390760000000000052e-01 2.568988000000000049e+00 -2.592525999999999886e+00 -1.505773999999999946e+00 -3.270100000000000090e-02 -4.757299999999999723e-02 4.313000000000000167e-02 -7.032199999999999562e-02 -6.133999999999999869e-02 -3.844700000000000201e-02 3.702699999999999741e-02 -5.055199999999999971e-02 -2.209099999999999953e-02 1.915389999999999870e-01 -1.698250000000000037e-01 1.432160000000000100e-01 -1.429159999999999875e-01 -7.148999999999999799e-02 6.078900000000000275e-02 -8.012800000000000478e-02 -1.856500000000000164e-02 -5.363099999999999812e-02 -3.308978000000000197e+00 3.273017999999999983e+00 -2.192435999999999829e+00 -5.272000000000000297e-02 4.477400000000000130e-02 -3.690100000000000324e-02 9.852950000000000319e-01 9.175889999999999880e-01 8.220039999999999569e-01 3.820199999999999985e-02 4.376900000000000235e-02 1.100399999999999989e-02 3.024249999999999994e-01 -2.344030000000000002e-01 -2.110630000000000006e-01 8.356000000000000580e-03 5.383299999999999891e-02 -4.140599999999999836e-02 7.655399999999999705e-02 6.171499999999999903e-02 -2.018899999999999861e-02 -6.890499999999999403e-02 -5.528999999999999887e-02 -3.514400000000000163e-02 -8.369000000000000050e-02 7.108299999999999341e-02 5.820199999999999679e-02 -2.655499999999999874e-02 4.778000000000000302e-02 -2.722899999999999973e-02 1.193899999999999961e-01 9.159399999999999487e-02 -2.466399999999999842e-02 -7.894900000000000528e-02 -4.876300000000000079e-02 -1.892969999999999930e-01 5.179899999999999782e-02 5.524000000000000264e-03 5.323100000000000054e-02 -1.577189999999999981e-01 -5.715800000000000047e-02 6.570000000000000319e-04 2.196199999999999888e-02 -5.838499999999999940e-02 4.284299999999999914e-02 -4.105999999999999928e-02 -6.055399999999999672e-02 3.491699999999999665e-02 -1.717600000000000030e-02 -1.343000000000000010e-03 3.602899999999999853e-02 1.576500000000000123e-01 1.067359999999999975e-01 -1.027850000000000014e-01 -1.559909999999999908e-01 -1.812100000000000169e-02 1.085299999999999980e-02 -1.620020000000000071e-01 2.067249999999999921e-01 2.967910000000000270e-01 -5.462499999999999994e-02 1.024999999999999939e-01 -3.855499999999999899e-02 -5.403299999999999770e-02 1.202610000000000068e-01 -5.410500000000000032e-02 9.439000000000000168e-02 9.564000000000000279e-02 -2.046699999999999908e-02 1.319309999999999927e-01 2.378200000000000106e-02 1.440690000000000026e-01 1.751949999999999896e-01 2.328469999999999984e-01 3.720510000000000206e-01 -2.107789999999999941e-01 9.729500000000000648e-02 3.135099999999999693e-02 -2.467600000000000071e-01 1.920040000000000080e-01 -1.307000000000000002e-03 2.778699999999999920e-02 -1.035139999999999949e-01 -4.368299999999999961e-02
6.066859999999999475e-01 -6.470519999999999605e-01 1.798246000000000011e+00 -8.599900000000000599e-02 -8.725800000000000223e-02 8.196599999999999719e-02 1.907159999999999966e-01 1.808800000000000130e-01 1.761469999999999980e-01 -6.819500000000000561e-02 7.304700000000000082e-02 8.658100000000000518e-02 6.989599999999999980e-02 -7.974699999999999844e-02 8.245500000000000052e-02 9.977199999999999958e-02 1.071209999999999940e-01 -6.884500000000000342e-02 5.584700000000000081e-02 4.327299999999999897e-02 2.322700000000000112e-02 5.666000000000000029e-03 1.228899999999999958e-02 1.142800000000000066e-02 1.134140000000000009e-01 -1.242859999999999937e-01 5.195099999999999718e-02 6.785800000000000165e-02 5.952899999999999858e-02 -8.140500000000000513e-02 3.045600000000000043e-02 4.291799999999999782e-02 6.161999999999999943e-03 -5.151700000000000029e-02 3.614799999999999958e-02 1.285799999999999964e-02 7.761700000000000543e-02 -6.498700000000000310e-02 5.800899999999999807e-02 -4.648000000000000048e-02 -3.955899999999999694e-02 1.364899999999999967e-02 -1.230172000000000043e+00 -1.296502000000000043e+00 5.267399999999999860e-01 -1.222999999999999912e-03 -6.871800000000000130e-02 1.426000000000000011e-02 -5.568599999999999939e-02 -2.691400000000000042e-02 5.596799999999999692e-02 1.358109999999999873e-01 7.172299999999999509e-02 -1.350739999999999996e-01 -3.408800000000000024e-02 -1.045060000000000017e-01 -8.609799999999999398e-02 2.437759999999999927e-01 -2.464800000000000046e-01 -1.931889999999999996e-01 2.549850999999999868e+00 -2.561018999999999934e+00 -1.548909000000000091e+00 -5.318099999999999911e-02 -7.340199999999999503e-02 6.552800000000000291e-02 -9.146899999999999475e-02 -8.359800000000000564e-02 -5.882099999999999829e-02 5.743299999999999794e-02 -7.204599999999999893e-02 -3.498899999999999927e-02 2.724130000000000162e-01 -2.466559999999999864e-01 2.158390000000000031e-01 -1.680909999999999904e-01 -9.723400000000000098e-02 7.128500000000000114e-02 -1.291829999999999923e-01 -7.289600000000000246e-02 -9.706599999999999950e-02 -3.179796000000000067e+00 3.163616000000000206e+00 -2.186633000000000049e+00 -4.535899999999999654e-02 3.504700000000000176e-02 -3.712200000000000222e-02 9.520950000000000246e-01 8.881850000000000023e-01 8.736500000000000377e-01 2.860199999999999895e-02 3.575199999999999906e-02 1.155999999999999910e-03 4.055819999999999981e-01 -3.364530000000000021e-01 -2.973379999999999912e-01 2.308299999999999935e-02 3.859900000000000136e-02 -4.387900000000000134e-02 1.025660000000000044e-01 8.583999999999999964e-02 -2.841799999999999882e-02 -9.762400000000000244e-02 -8.150899999999999812e-02 -5.083499999999999824e-02 -1.111859999999999932e-01 9.898999999999999466e-02 8.395800000000000485e-02 -4.370199999999999779e-02 6.557499999999999440e-02 -4.217100000000000015e-02 1.860159999999999869e-01 1.284599999999999909e-01 -2.706700000000000078e-02 -1.028349999999999959e-01 -6.851999999999999758e-02 -2.829909999999999926e-01 7.242899999999999339e-02 3.437500000000000278e-02 7.997899999999999454e-02 -2.414169999999999927e-01 -7.931699999999999862e-02 -1.842000000000000104e-03 3.036300000000000110e-02 -9.363399999999999501e-02 5.478000000000000230e-02 -6.639299999999999369e-02 -8.576100000000000390e-02 5.081399999999999806e-02 -1.621600000000000125e-02 -9.669999999999999776e-04 4.689100000000000212e-02 1.788800000000000112e-01 9.751100000000000045e-02 -1.332679999999999976e-01 -2.389820000000000000e-01 -6.077199999999999963e-02 2.042300000000000018e-02 -1.928499999999999936e-01 2.574089999999999989e-01 4.067569999999999797e-01 -8.545099999999999918e-02 1.578039999999999998e-01 -5.065399999999999764e-02 -8.406299999999999883e-02 1.897149999999999948e-01 -8.034399999999999875e-02 1.130499999999999977e-01 1.469699999999999895e-01 -2.843700000000000047e-02 1.505120000000000069e-01 7.812500000000000000e-02 1.780990000000000073e-01 2.578610000000000069e-01 3.447689999999999921e-01 4.383210000000000162e-01 -2.529129999999999989e-01 2.005830000000000113e-01 6.810299999999999687e-02 -3.341669999999999918e-01 2.934329999999999994e-01 -6.350999999999999875e-03 3.490100000000000147e-02 -1.709330000000000016e-01 -6.492399999999999560e-02
5.188369999999999926e-01 -5.606689999999999729e-01 1.719176999999999955e+00 -1.120909999999999962e-01 -1.172649999999999942e-01 1.092150000000000065e-01 2.537409999999999943e-01 2.509310000000000151e-01 2.315379999999999938e-01 -8.332499999999999629e-02 8.838400000000000423e-02 1.106589999999999935e-01 9.203999999999999682e-02 -1.007819999999999966e-01 1.037619999999999931e-01 1.268589999999999995e-01 1.321749999999999869e-01 -8.988799999999999568e-02 7.184799999999999520e-02 5.896400000000000252e-02 3.039700000000000041e-02 5.118000000000000153e-03 1.145400000000000064e-02 1.424699999999999925e-02 1.429390000000000105e-01 -1.551619999999999944e-01 6.873799999999999355e-02 8.929299999999999737e-02 7.634799999999999920e-02 -1.076499999999999957e-01 3.830499999999999877e-02 5.514000000000000151e-02 7.729999999999999892e-03 -6.618699999999999584e-02 4.762099999999999667e-02 1.834900000000000073e-02 1.036180000000000018e-01 -8.684300000000000352e-02 7.918999999999999651e-02 -4.336799999999999683e-02 -3.258199999999999985e-02 5.655999999999999570e-03 -1.346554999999999946e+00 -1.407332999999999945e+00 5.003999999999999559e-01 -7.713000000000000238e-03 -6.556199999999999528e-02 3.085399999999999948e-02 -4.521100000000000119e-02 -4.305500000000000299e-02 8.708000000000000462e-02 1.884510000000000074e-01 1.218420000000000059e-01 -1.898890000000000022e-01 -6.969499999999999307e-02 -1.425460000000000060e-01 -1.232639999999999986e-01 3.047619999999999774e-01 -3.083989999999999787e-01 -2.461740000000000039e-01 2.521091999999999889e+00 -2.521142000000000216e+00 -1.594732999999999956e+00 -7.298699999999999632e-02 -9.536999999999999644e-02 8.739099999999999646e-02 -1.118109999999999937e-01 -1.051200000000000051e-01 -7.672600000000000253e-02 7.703500000000000625e-02 -9.288899999999999935e-02 -4.755199999999999705e-02 3.515730000000000244e-01 -3.218219999999999970e-01 2.883160000000000167e-01 -1.897639999999999882e-01 -1.216470000000000051e-01 8.186200000000000421e-02 -1.762050000000000005e-01 -1.259010000000000129e-01 -1.372950000000000004e-01 -3.023175999999999863e+00 3.027372000000000174e+00 -2.166608000000000089e+00 -3.833600000000000202e-02 2.448900000000000035e-02 -3.651299999999999685e-02 9.222620000000000262e-01 8.666340000000000154e-01 9.305940000000000323e-01 1.994999999999999898e-02 2.734999999999999931e-02 -8.210000000000000284e-03 5.071020000000000527e-01 -4.340800000000000214e-01 -3.810609999999999831e-01 3.621100000000000013e-02 2.343999999999999903e-02 -4.651899999999999785e-02 1.286029999999999951e-01 1.085030000000000022e-01 -3.546699999999999853e-02 -1.264119999999999966e-01 -1.093200000000000005e-01 -6.655600000000000405e-02 -1.364759999999999862e-01 1.249880000000000019e-01 1.081089999999999968e-01 -6.019499999999999851e-02 8.342800000000000216e-02 -5.680000000000000326e-02 2.518969999999999820e-01 1.655889999999999862e-01 -2.815300000000000094e-02 -1.268130000000000090e-01 -8.835099999999999898e-02 -3.741110000000000269e-01 9.378499999999999337e-02 6.252399999999999625e-02 1.061489999999999934e-01 -3.239070000000000005e-01 -9.960600000000000009e-02 -3.902999999999999785e-03 3.932299999999999685e-02 -1.282159999999999966e-01 6.626600000000000545e-02 -9.122800000000000353e-02 -1.097220000000000001e-01 6.652800000000000380e-02 -1.652899999999999855e-02 -5.199999999999999544e-04 5.749100000000000044e-02 1.985669999999999935e-01 8.751200000000000645e-02 -1.648189999999999933e-01 -3.197639999999999927e-01 -1.037430000000000019e-01 3.136900000000000105e-02 -2.238130000000000119e-01 3.053159999999999763e-01 5.157939999999999747e-01 -1.156760000000000010e-01 2.116099999999999925e-01 -6.362099999999999700e-02 -1.139809999999999990e-01 2.558409999999999851e-01 -1.050569999999999976e-01 1.304440000000000044e-01 1.981120000000000103e-01 -3.554000000000000214e-02 1.653820000000000012e-01 1.330620000000000136e-01 2.124240000000000017e-01 3.424059999999999881e-01 4.569300000000000028e-01 5.045680000000000165e-01 -2.936659999999999826e-01 3.024390000000000134e-01 1.047639999999999960e-01 -4.174970000000000070e-01 3.905199999999999783e-01 -1.508400000000000019e-02 4.006799999999999945e-02 -2.329420000000000102e-01 -8.447300000000000642e-02
4.208149999999999946e-01 -4.607800000000000229e-01 1.619744999999999990e+00 -1.380240000000000078e-01 -1.448619999999999908e-01 1.350069999999999881e-01 3.178110000000000102e-01 3.175720000000000209e-01 2.841650000000000009e-01 -9.670399999999999829e-02 1.043749999999999956e-01 1.357679999999999998e-01 1.134840000000000015e-01 -1.203950000000000020e-01 1.242309999999999942e-01 1.518480000000000107e-01 1.561099999999999988e-01 -1.103800000000000059e-01 8.828400000000000136e-02 7.362100000000000588e-02 3.705300000000000260e-02 3.717999999999999951e-03 1.131899999999999920e-02 1.895200000000000010e-02 1.704160000000000119e-01 -1.846250000000000113e-01 8.454100000000000503e-02 1.102120000000000044e-01 9.235100000000000253e-02 -1.323270000000000002e-01 4.532900000000000124e-02 6.881500000000000117e-02 6.645999999999999998e-03 -8.164699999999999736e-02 5.930799999999999961e-02 2.404200000000000087e-02 1.300810000000000022e-01 -1.067710000000000048e-01 1.009140000000000037e-01 -3.908600000000000269e-02 -2.682100000000000109e-02 -1.381000000000000066e-03 -1.466420999999999975e+00 -1.520532999999999912e+00 4.828319999999999834e-01 -1.541599999999999915e-02 -5.969399999999999706e-02 4.797499999999999681e-02 -3.338700000000000001e-02 -5.920999999999999874e-02 1.152610000000000023e-01 2.387070000000000025e-01 1.699050000000000005e-01 -2.433980000000000032e-01 -1.028420000000000029e-01 -1.781689999999999940e-01 -1.577490000000000003e-01 3.637650000000000050e-01 -3.683620000000000227e-01 -2.972259999999999902e-01 2.482507000000000019e+00 -2.471426999999999818e+00 -1.643156000000000061e+00 -9.183199999999999696e-02 -1.176439999999999986e-01 1.081820000000000004e-01 -1.326640000000000041e-01 -1.266160000000000063e-01 -9.428899999999999781e-02 9.583600000000000452e-02 -1.147520000000000068e-01 -5.940100000000000241e-02 4.282360000000000055e-01 -3.959400000000000142e-01 3.582150000000000056e-01 -2.114020000000000066e-01 -1.430639999999999967e-01 9.075099999999999834e-02 -2.201019999999999921e-01 -1.761939999999999895e-01 -1.741759999999999975e-01 -2.844578999999999969e+00 2.866445000000000132e+00 -2.131743999999999861e+00 -3.056299999999999989e-02 1.446099999999999990e-02 -3.475999999999999923e-02 8.955659999999999732e-01 8.531020000000000270e-01 9.885369999999999990e-01 1.103499999999999967e-02 2.173900000000000138e-02 -1.703100000000000100e-02 6.033150000000000457e-01 -5.301839999999999886e-01 -4.619670000000000165e-01 4.923299999999999899e-02 1.065900000000000007e-02 -4.919699999999999768e-02 1.532660000000000133e-01 1.305300000000000071e-01 -4.336999999999999883e-02 -1.556450000000000056e-01 -1.369110000000000049e-01 -8.237200000000000077e-02 -1.600030000000000063e-01 1.494179999999999953e-01 1.311299999999999966e-01 -7.474799999999999500e-02 1.015739999999999976e-01 -6.806299999999999850e-02 3.149700000000000277e-01 2.003929999999999878e-01 -2.758000000000000035e-02 -1.506619999999999904e-01 -1.083319999999999977e-01 -4.612470000000000181e-01 1.146319999999999978e-01 9.141299999999999426e-02 1.332470000000000043e-01 -4.041139999999999732e-01 -1.194609999999999977e-01 -7.948000000000000204e-03 4.742299999999999988e-02 -1.616589999999999971e-01 7.661400000000000154e-02 -1.145489999999999980e-01 -1.323539999999999994e-01 8.155600000000000349e-02 -1.815599999999999853e-02 -5.999999999999999474e-04 6.766999999999999404e-02 2.152189999999999936e-01 7.583099999999999563e-02 -1.948969999999999869e-01 -3.969639999999999835e-01 -1.457320000000000004e-01 4.336399999999999977e-02 -2.532980000000000231e-01 3.502730000000000010e-01 6.194960000000000466e-01 -1.451040000000000108e-01 2.633840000000000070e-01 -7.622299999999999909e-02 -1.415349999999999941e-01 3.189139999999999753e-01 -1.276160000000000072e-01 1.462100000000000066e-01 2.472399999999999876e-01 -4.216899999999999815e-02 1.768780000000000074e-01 1.862649999999999861e-01 2.459300000000000097e-01 4.272900000000000031e-01 5.667140000000000510e-01 5.696130000000000360e-01 -3.329349999999999810e-01 4.029229999999999756e-01 1.410160000000000025e-01 -4.969359999999999888e-01 4.842650000000000010e-01 -2.698199999999999904e-02 4.408000000000000113e-02 -2.950590000000000157e-01 -1.043820000000000026e-01
3.194449999999999790e-01 -3.502149999999999985e-01 1.496245999999999965e+00 -1.608809999999999962e-01 -1.713109999999999911e-01 1.596370000000000011e-01 3.775709999999999900e-01 3.801640000000000019e-01 3.358419999999999739e-01 -1.091519999999999990e-01 1.173209999999999947e-01 1.570709999999999884e-01 1.326930000000000054e-01 -1.376320000000000043e-01 1.444739999999999913e-01 1.758740000000000026e-01 1.781929999999999903e-01 -1.292870000000000130e-01 1.041750000000000037e-01 8.831799999999999373e-02 4.523800000000000043e-02 1.539000000000000003e-03 1.156000000000000083e-02 2.300599999999999867e-02 1.975999999999999979e-01 -2.114749999999999963e-01 9.954300000000000648e-02 1.291210000000000135e-01 1.095239999999999964e-01 -1.550370000000000081e-01 5.191400000000000181e-02 8.124299999999999577e-02 8.840999999999999900e-03 -1.006090000000000040e-01 6.716900000000000648e-02 2.993799999999999933e-02 1.566929999999999990e-01 -1.257780000000000009e-01 1.258720000000000117e-01 -3.334600000000000064e-02 -1.983899999999999900e-02 -1.113800000000000033e-02 -1.590519000000000016e+00 -1.635553999999999952e+00 4.730650000000000133e-01 -2.259999999999999856e-02 -5.331999999999999934e-02 6.358199999999999963e-02 -2.356799999999999867e-02 -7.607800000000000673e-02 1.437180000000000124e-01 2.866619999999999724e-01 2.158009999999999928e-01 -2.957420000000000049e-01 -1.336819999999999953e-01 -2.113810000000000133e-01 -1.896680000000000033e-01 4.199410000000000087e-01 -4.246960000000000179e-01 -3.459999999999999742e-01 2.433745000000000047e+00 -2.411132999999999971e+00 -1.689289999999999958e+00 -1.089360000000000051e-01 -1.374350000000000016e-01 1.277820000000000067e-01 -1.514999999999999958e-01 -1.461359999999999881e-01 -1.130519999999999997e-01 1.127940000000000054e-01 -1.335169999999999968e-01 -7.070300000000000196e-02 5.004070000000000462e-01 -4.642220000000000235e-01 4.254229999999999956e-01 -2.323479999999999990e-01 -1.644980000000000053e-01 9.740999999999999659e-02 -2.625129999999999963e-01 -2.233269999999999977e-01 -2.116059999999999885e-01 -2.650939000000000156e+00 2.688931999999999878e+00 -2.086059999999999803e+00 -2.137800000000000117e-02 3.592999999999999840e-03 -3.269500000000000184e-02 8.743030000000000523e-01 8.450349999999999806e-01 1.048132999999999981e+00 4.113000000000000336e-03 1.426000000000000011e-02 -2.402699999999999975e-02 6.974120000000000319e-01 -6.190860000000000252e-01 -5.381650000000000045e-01 6.067600000000000077e-02 -2.720999999999999894e-03 -5.304899999999999893e-02 1.744130000000000125e-01 1.518160000000000065e-01 -4.860500000000000237e-02 -1.846899999999999931e-01 -1.658560000000000034e-01 -9.788499999999999979e-02 -1.820050000000000001e-01 1.727329999999999977e-01 1.519220000000000015e-01 -8.780599999999999516e-02 1.178180000000000061e-01 -8.251799999999999413e-02 3.762789999999999746e-01 2.335689999999999988e-01 -2.634399999999999936e-02 -1.733580000000000121e-01 -1.281110000000000027e-01 -5.439410000000000078e-01 1.340030000000000110e-01 1.191409999999999969e-01 1.586239999999999872e-01 -4.800949999999999940e-01 -1.382120000000000015e-01 -1.080099999999999984e-02 5.604300000000000254e-02 -1.945560000000000067e-01 8.663700000000000567e-02 -1.362849999999999895e-01 -1.536649999999999960e-01 9.607799999999999674e-02 -1.881100000000000133e-02 -5.689999999999999529e-04 7.821400000000000574e-02 2.284360000000000002e-01 6.203299999999999786e-02 -2.229009999999999880e-01 -4.703809999999999936e-01 -1.867189999999999961e-01 5.676599999999999702e-02 -2.797950000000000159e-01 3.925409999999999733e-01 7.193829999999999947e-01 -1.728490000000000026e-01 3.124649999999999928e-01 -8.921400000000000163e-02 -1.667589999999999906e-01 3.788480000000000181e-01 -1.494089999999999863e-01 1.600959999999999883e-01 2.943490000000000273e-01 -4.835600000000000315e-02 1.827020000000000033e-01 2.375339999999999951e-01 2.774849999999999817e-01 5.105110000000000481e-01 6.725400000000000267e-01 6.302379999999999649e-01 -3.690970000000000084e-01 5.004579999999999584e-01 1.768099999999999949e-01 -5.709319999999999951e-01 5.730560000000000098e-01 -4.237500000000000294e-02 4.642799999999999705e-02 -3.525690000000000213e-01 -1.236219999999999958e-01