3.020538088430377144e+01 -5.039854180810806383e+00 9.137731549178806922e-01 -5.039854180810806383e+00 3.014827345706199324e+01 -6.248320249482065547e-01 9.137731549178806922e-01 -6.248320249482065547e-01 -8.111065303312127384e+00
3.027775196441962535e+01 -4.883988686357306541e+00 1.046534947037672580e+00 -4.883988686357306541e+00 3.022596780401648786e+01 -4.416621550094165238e-01 1.046534947037672580e+00 -4.416621550094165238e-01 -7.990464942802163684e+00
3.030101862390145584e+01 -4.679761131611226865e+00 1.161968962407184058e+00 -4.679761131611226865e+00 3.025740042725419698e+01 -2.309283852383270386e-01 1.161968962407184058e+00 -2.309283852383270386e-01 -7.887626911437471300e+00
3.033552932660368739e+01 -4.426471404380635910e+00 1.242946594123838455e+00 -4.426471404380635910e+00 3.027878402635773014e+01 1.026026488174052419e-02 1.242946594123838455e+00 1.026026488174052419e-02 -7.784112909680570347e+00
3.036183181740052461e+01 -4.116991638297689882e+00 1.307580227428873254e+00 -4.116991638297689882e+00 3.027952035124924279e+01 2.701889870358106238e-01 1.307580227428873254e+00 2.701889870358106238e-01 -7.656577817200535208e+00
3.038538817847901186e+01 -3.767599441824772466e+00 1.345748412788948079e+00 -3.767599441824772466e+00 3.028512124878468725e+01 5.413738233101430541e-01 1.345748412788948079e+00 5.413738233101430541e-01 -7.501460718538410788e+00
3.041039908299073957e+01 -3.382241999216389683e+00 1.370813636350046938e+00 -3.382241999216389683e+00 3.028580325462682410e+01 8.223300530218508042e-01 1.370813636350046938e+00 8.223300530218508042e-01 -7.326390422406264591e+00
3.043544016475211933e+01 -2.953284466310540424e+00 1.367409642589281216e+00 -2.953284466310540424e+00 3.028347960640360625e+01 1.102380965243993316e+00 1.367409642589281216e+00 1.102380965243993316e+00 -7.142315234977909100e+00
3.047834014285765036e+01 -2.497342436765713103e+00 1.351548480172096500e+00 -2.497342436765713103e+00 3.028883908594183794e+01 1.380343611790204816e+00 1.351548480172096500e+00 1.380343611790204816e+00 -6.950937153133726731e+00
3.052576067296108775e+01 -2.019014923428900321e+00 1.319500241041483557e+00 -2.019014923428900321e+00 3.028800015840150550e+01 1.631901164890760869e+00 1.319500241041483557e+00 1.631901164890760869e+00 -6.762655257103857842e+00
3.057826908735587423e+01 -1.522750052898833140e+00 1.284379957896278901e+00 -1.522750052898833140e+00 3.027938757135077452e+01 1.868762397410705933e+00 1.284379957896278901e+00 1.868762397410705933e+00 -6.597682268705330699e+00
3.063115773509628426e+01 -1.008149485480102081e+00 1.239578813062655271e+00 -1.008149485480102081e+00 3.028082400843421951e+01 2.080504087320178108e+00 1.239578813062655271e+00 2.080504087320178108e+00 -6.444086103425675560e+00
3.061764436270203760e+01 3.768559078363711734e+00 8.545231429507943455e-01 3.768559078363711734e+00 3.003479492746994239e+01 2.316242726153062481e+00 8.545231429507943455e-01 2.316242726153062481e+00 -6.783447382114208501e+00
2.967607192540456751e+01 5.287217096209709588e+00 1.035888413360384064e+00 5.287217096209709588e+00 2.956996871562751394e+01 1.424547247080715229e+00 1.035888413360384064e+00 1.424547247080715229e+00 -8.012307236100410179e+00
2.857236919662581087e+01 4.852218077923493134e+00 1.124718165436535466e+00 4.852218077923493134e+00 2.904843341623870856e+01 3.166679869500951816e-01 1.124718165436535466e+00 3.166679869500951816e-01 -8.023822874567681396e+00
2.781275350383111800e+01 3.236063401901239533e+00 5.209981443449925864e-01 3.236063401901239533e+00 2.842348671774182733e+01 -7.449314431139446580e-01 5.209981443449925864e-01 -7.449314431139446580e-01 -7.550058161378277788e+00
2.691632019656337604e+01 1.297893330290524228e+00 -4.022023833642285329e-01 1.297893330290524228e+00 2.743886945154049073e+01 -1.508862482608900546e+00 -4.022023833642285329e-01 -1.508862482608900546e+00 -7.683242434993200476e+00
2.604009357566273763e+01 -5.793066261229308234e-01 -1.160454064474644609e+00 -5.793066261229308234e-01 2.632669898650933149e+01 -1.685339038574837689e+00 -1.160454064474644609e+00 -1.685339038574837689e+00 -8.300711211026275294e+00
2.557730734589679500e+01 -1.936154231333949927e+00 -1.572566656624648340e+00 -1.936154231333949927e+00 2.551319879673570767e+01 -1.410472577842939446e+00 -1.572566656624648340e+00 -1.410472577842939446e+00 -8.657164883917801035e+00
2.550103736512588171e+01 -2.719223682558317368e+00 -1.740768610735958344e+00 -2.719223682558317368e+00 2.504644727636547330e+01 -9.965372798139441324e-01 -1.740768610735958344e+00 -9.965372798139441324e-01 -8.519810114400948819e+00
2.543392919734936797e+01 -3.121739909318928419e+00 -1.700427663400926770e+00 -3.121739909318928419e+00 2.458293075715794629e+01 -3.321609869215234045e-01 -1.700427663400926770e+00 -3.321609869215234045e-01 -8.107643203201570614e+00
2.466806077842674227e+01 -2.626211363680373889e+00 -1.236392095499385446e+00 -2.626211363680373889e+00 2.350984586587629011e+01 8.270980584668949920e-01 -1.236392095499385446e+00 8.270980584668949920e-01 -7.744134089341365268e+00
2.355407967841645345e+01 -1.519931497781319418e+00 -6.830137622776057960e-01 -1.519931497781319418e+00 2.240441699841742462e+01 2.075591231076803655e+00 -6.830137622776057960e-01 2.075591231076803655e+00 -7.209815706999900264e+00
2.342596518274309503e+01 -1.245384915895734412e+00 -5.645559864929462490e-01 -1.245384915895734412e+00 2.228885020314944398e+01 2.349419594420667057e+00 -5.645559864929462490e-01 2.349419594420667057e+00 -6.876634729040133287e+00
2.340304857935722893e+01 -6.100753498682915943e-01 -3.876569490318787503e-01 -6.100753498682915943e-01 2.231972152954362443e+01 2.630406001382026737e+00 -3.876569490318787503e-01 2.630406001382026737e+00 -5.795902922696613224e+00
2.330543724763229463e+01 -3.912782189901400920e-01 -3.779881582433208820e-01 -3.912782189901400920e-01 2.237805415312127977e+01 2.314920962618296940e+00 -3.779881582433208820e-01 2.314920962618296940e+00 -5.551708618511188575e+00
2.300981487458962960e+01 -3.691341531953718502e-01 -4.289454620059886536e-01 -3.691341531953718502e-01 2.228705767452010633e+01 1.663605383375339031e+00 -4.289454620059886536e-01 1.663605383375339031e+00 -5.741082930978466337e+00
2.277142063778735448e+01 -5.153127505105221662e-01 -5.009725214758071754e-01 -5.153127505105221662e-01 2.213913483217505984e+01 9.715203398522884726e-01 -5.009725214758071754e-01 9.715203398522884726e-01 -6.005972792975354579e+00
2.265689193990740691e+01 -7.160759569965320370e-01 -5.915706603815760189e-01 -7.160759569965320370e-01 2.201418291226525170e+01 2.645941249502968273e-01 -5.915706603815760189e-01 2.645941249502968273e-01 -6.183227921982317632e+00
2.266841964927454001e+01 -8.738426181781187019e-01 -6.763445901044744524e-01 -8.738426181781187019e-01 2.196522937787948848e+01 -2.090498792404979767e-01 -6.763445901044744524e-01 -2.090498792404979767e-01 -6.107821010551456098e+00
2.276265112903843146e+01 -1.024107215096173862e+00 -7.649389596333386887e-01 -1.024107215096173862e+00 2.199273292321248263e+01 -5.609407519846153489e-01 -7.649389596333386887e-01 -5.609407519846153489e-01 -5.811100185621450365e+00
2.282806937083442378e+01 -1.130801898966414365e+00 -8.464235691441497345e-01 -1.130801898966414365e+00 2.201029608251004888e+01 -7.774323409893404424e-01 -8.464235691441497345e-01 -7.774323409893404424e-01 -5.353957101540467001e+00
2.278796984149660787e+01 -1.248770803306708643e+00 -9.321209227064048974e-01 -1.248770803306708643e+00 2.201916819390779168e+01 -8.662620930654915119e-01 -9.321209227064048974e-01 -8.662620930654915119e-01 -4.618833264563479979e+00
2.140261680626414176e+01 -1.476705605379539765e+00 -1.015035933850729100e+00 -1.476705605379539765e+00 2.160742979965347388e+01 -3.627124344693883895e-01 -1.015035933850729100e+00 -3.627124344693883895e-01 -4.791984287617746752e+00
2.085170093661398028e+01 -1.522562953950989284e+00 -1.008626286024606689e+00 -1.522562953950989284e+00 2.141738555224391760e+01 -2.143490042794204409e-01 -1.008626286024606689e+00 -2.143490042794204409e-01 -5.340232488398656052e+00
1.907787013115909502e+01 -1.521935267158224026e+00 -9.301714723788742090e-01 -1.521935267158224026e+00 2.086479786296302663e+01 2.530543446833039556e-01 -9.301714723788742090e-01 2.530543446833039556e-01 -6.717141929178442439e+00
1.774306398909402915e+01 -1.333321421382181127e+00 -8.410218414564099021e-01 -1.333321421382181127e+00 2.044291991282557674e+01 6.591556287025939209e-01 -8.410218414564099021e-01 6.591556287025939209e-01 -7.196211802856699258e+00
1.654511770965151740e+01 -9.197844630485945139e-01 -7.422335969950398793e-01 -9.197844630485945139e-01 1.989357326015732852e+01 1.130180247623579604e+00 -7.422335969950398793e-01 1.130180247623579604e+00 -7.292115102251321090e+00
1.573088119498637916e+01 -3.316660800272276388e-01 -6.257614842374936703e-01 -3.316660800272276388e-01 1.856972749516593169e+01 1.280058575746086724e+00 -6.257614842374936703e-01 1.280058575746086724e+00 -8.063904297555705369e+00
1.583944083288512417e+01 -2.559030770504695535e-03 -4.389341316408596483e-01 -2.559030770504695535e-03 1.683311730943204410e+01 8.238871991039032894e-01 -4.389341316408596483e-01 8.238871991039032894e-01 -9.642542616810370504e+00
1.604610670940310158e+01 1.743641484902845595e-02 -2.921218120830135767e-01 1.743641484902845595e-02 1.624333917767980751e+01 5.958739361819765934e-01 -2.921218120830135767e-01 5.958739361819765934e-01 -1.006805390780594145e+01
1.597026524557724692e+01 2.603693099989918755e-02 -9.441254326180413547e-02 2.603693099989918755e-02 1.527974338358617956e+01 2.603512036492005577e-01 -9.441254326180413547e-02 2.603512036492005577e-01 -1.027376618323490831e+01
1.524213649506963542e+01 2.273553988795091671e-02 -1.006652693897354123e-01 2.273553988795091671e-02 1.446026809838142491e+01 8.018698777576742376e-02 -1.006652693897354123e-01 8.018698777576742376e-02 -1.016156716902811041e+01
1.320242601382927106e+01 -7.875055069232374250e-02 -2.520766017945733628e-01 -7.875055069232374250e-02 1.308386563539579583e+01 2.127677163976463004e-01 -2.520766017945733628e-01 2.127677163976463004e-01 -1.067374148557480673e+01
1.052156968647873470e+01 -5.956989081339939679e-02 -4.625870599182367315e-01 -5.956989081339939679e-02 1.107007137615672221e+01 1.043233555925724199e+00 -4.625870599182367315e-01 1.043233555925724199e+00 -1.276571292776281119e+01
9.525213470162702478e+00 1.168463106532332575e-02 -5.792100589240438691e-01 1.168463106532332575e-02 1.012862568330779389e+01 1.439346170310143336e+00 -5.792100589240438691e-01 1.439346170310143336e+00 -1.363206555257725938e+01
7.916476362104954312e+00 1.763437760674674282e-01 -7.922976541680032403e-01 1.763437760674674282e-01 8.394423642096150218e+00 1.912446984007198703e+00 -7.922976541680032403e-01 1.912446984007198703e+00 -1.469816742828940548e+01
6.561264363825082491e+00 3.148271747213123306e-01 -8.276171071609124130e-01 3.148271747213123306e-01 6.799616352477845460e+00 2.048510167238938973e+00 -8.276171071609124130e-01 2.048510167238938973e+00 -1.539648709159059692e+01
5.429671820917780778e+00 4.546987268591574649e-01 -6.593729049000895959e-01 4.546987268591574649e-01 5.402331232732907829e+00 1.918271193190069113e+00 -6.593729049000895959e-01 1.918271193190069113e+00 -1.603459107093583214e+01
4.575945357357804610e+00 6.677561448534645727e-01 -3.832812478323129324e-01 6.677561448534645727e-01 4.274444456082894028e+00 1.727285415591365059e+00 -3.832812478323129324e-01 1.727285415591365059e+00 -1.662133940682298672e+01
4.059298772412655687e+00 9.142801327120372301e-01 -9.022394101008182621e-02 9.142801327120372301e-01 3.497331993939866379e+00 1.551925417862558554e+00 -9.022394101008182621e-02 1.551925417862558554e+00 -1.711680156251230756e+01
3.662860243731993037e+00 1.273178162825390425e+00 2.448702745776332734e-01 1.273178162825390425e+00 2.805651325562155129e+00 1.350256893886983445e+00 2.448702745776332734e-01 1.350256893886983445e+00 -1.765700450853594816e+01
3.423108030695368953e+00 1.790947341457599817e+00 5.673624707105988652e-01 1.790947341457599817e+00 2.340420738574387372e+00 1.130850182565857898e+00 5.673624707105988652e-01 1.130850182565857898e+00 -1.823635338280838880e+01
3.424960913824012909e+00 2.527344658369908625e+00 8.483428422220282705e-01 2.527344658369908625e+00 2.211237968263343845e+00 9.001752862246091835e-01 8.483428422220282705e-01 9.001752862246091835e-01 -1.885989985692141246e+01
3.534878527957106442e+00 3.311663447729876086e+00 9.931996760024132120e-01 3.311663447729876086e+00 2.345146495869918635e+00 6.036536311423080781e-01 9.931996760024132120e-01 6.036536311423080781e-01 -1.953521238508778168e+01
2.574910039271671280e+00 3.148959788505192758e+00 4.936213434605365991e-01 3.148959788505192758e+00 7.666288856138606667e-01 -8.302063151810693542e-01 4.936213434605365991e-01 -8.302063151810693542e-01 -2.142767599437531345e+01
2.329436219700994570e+00 2.466676315669169561e+00 2.971795191247186274e-01 2.466676315669169561e+00 -2.890980516678653446e-03 -1.208713522118407546e+00 2.971795191247186274e-01 -1.208713522118407546e+00 -2.210089422141582105e+01
3.164615745624742793e+00 1.272610830531929471e+00 2.877098981838651648e-01 1.272610830531929471e+00 2.101543665777676761e-01 -1.438120973974264860e+00 2.877098981838651648e-01 -1.438120973974264860e+00 -2.388825047016480951e+01
3.546545052672638310e+00 3.148694228708254217e-01 5.044006570362945530e-01 3.148694228708254217e-01 -4.218779501374485957e-03 -1.154919556888435173e+00 5.044006570362945530e-01 -1.154919556888435173e+00 -2.442628065421349248e+01
3.032940334492429724e+00 -1.325245989375258171e+00 1.106231582299611160e+00 -1.325245989375258171e+00 -1.912857394602468508e+00 -2.904620633521438067e-01 1.106231582299611160e+00 -2.904620633521438067e-01 -2.443373443487757868e+01
2.161367045488154393e+00 -1.551490865467567204e+00 1.833461050767588141e+00 -1.551490865467567204e+00 -3.761467424695450035e+00 6.545566158556018754e-01 1.833461050767588141e+00 6.545566158556018754e-01 -2.362867180410670542e+01
1.686908255556750724e+00 -7.616254976215295347e-01 2.260915756640759167e+00 -7.616254976215295347e-01 -4.431275622525262747e+00 1.513920189650605597e+00 2.260915756640759167e+00 1.513920189650605597e+00 -2.219259081220893037e+01
1.358803090988480289e+00 6.526132009780016840e-02 1.390978074567632339e+00 6.526132009780016840e-02 -4.451144323696256677e+00 1.967973123367206423e+00 1.390978074567632339e+00 1.967973123367206423e+00 -2.233844349522783190e+01
1.440879174592474055e+00 4.475406832416607417e-01 7.286477992016293648e-01 4.475406832416607417e-01 -4.322058120584100216e+00 2.103625896003677109e+00 7.286477992016293648e-01 2.103625896003677109e+00 -2.278879066268714482e+01
-1.916376061911912732e-01 -2.995273091476580718e-01 -8.998614428282266653e-01 -2.995273091476580718e-01 -4.984056446203929625e+00 1.960881469698944723e+00 -8.998614428282266653e-01 1.960881469698944723e+00 -2.308994754331602195e+01
-1.383445833054448570e+00 -6.230696735685194998e-01 -1.657769103292607626e+00 -6.230696735685194998e-01 -4.707174145195265780e+00 1.157056106163809384e+00 -1.657769103292607626e+00 1.157056106163809384e+00 -2.224989137384848448e+01
-2.052240075295948429e+00 6.745218842254828706e-01 -1.793071819833113034e+00 6.745218842254828706e-01 -3.852276804348783834e+00 -3.537920394722045558e-01 -1.793071819833113034e+00 -3.537920394722045558e-01 -2.070529299220147479e+01
-2.764139500940618888e+00 1.309028735412177680e+00 -1.735409131197731547e+00 1.309028735412177680e+00 -4.021528926747989452e+00 -9.802838131512809916e-01 -1.735409131197731547e+00 -9.802838131512809916e-01 -2.036302262664646889e+01
-5.028887768287204629e+00 3.039072351621752155e+00 -1.117004860425438784e+00 3.039072351621752155e+00 -4.816524427034897471e+00 -1.695351850009430450e+00 -1.117004860425438784e+00 -1.695351850009430450e+00 -2.077008958265463079e+01
-4.940733986603262018e+00 4.526599518726563076e+00 1.035502144564836302e-01 4.526599518726563076e+00 -4.682579686728741031e+00 -8.904280345869557411e-01 1.035502144564836302e-01 -8.904280345869557411e-01 -2.145859560436893076e+01
-4.584201852862640258e+00 4.487972639171775135e+00 1.404630262310277766e+00 4.487972639171775135e+00 -4.617577890977949018e+00 -5.674771442592770887e-01 1.404630262310277766e+00 -5.674771442592770887e-01 -2.063563182910438698e+01
-5.312819474814617138e+00 2.748489579270999350e+00 1.765839869746987700e+00 2.748489579270999350e+00 -5.226096094764188571e+00 -6.927489430153983829e-02 1.765839869746987700e+00 -6.927489430153983829e-02 -1.905066232287268946e+01
-5.271826698887098317e+00 2.389887286204237515e+00 1.678307739405880072e+00 2.389887286204237515e+00 -5.303705945419659784e+00 1.253381887053561516e-01 1.678307739405880072e+00 1.253381887053561516e-01 -1.858141212623125682e+01
-4.110569919571706698e+00 7.660736242202605961e-01 1.164992722822332238e+00 7.660736242202605961e-01 -5.020257074886681714e+00 1.014758303153929120e+00 1.164992722822332238e+00 1.014758303153929120e+00 -1.650141501670523425e+01
-2.568868553891305861e+00 -4.850087564098050086e-01 5.234968206161928483e-01 -4.850087564098050086e-01 -4.149299401775311757e+00 9.069893091960710141e-01 5.234968206161928483e-01 9.069893091960710141e-01 -1.628376462131386404e+01
-1.001848475752727285e+00 -1.042961960678854716e+00 -4.269416926290840464e-01 -1.042961960678854716e+00 -3.298089720836326233e+00 5.742127063816432342e-01 -4.269416926290840464e-01 5.742127063816432342e-01 -1.633031001117738512e+01
3.023760415148236437e-03 -1.333466272180511503e+00 -1.029804679830505165e+00 -1.333466272180511503e+00 -3.184363737797128113e+00 6.847157591579886571e-01 -1.029804679830505165e+00 6.847157591579886571e-01 -1.615539060129349735e+01
-1.959855443210770654e+00 -5.559675412419363694e-01 -5.241908973581929088e-01 -5.559675412419363694e-01 -4.770135958869569315e+00 6.227316883724149932e-01 -5.241908973581929088e-01 6.227316883724149932e-01 -1.823378831658795463e+01
-3.551560511564830325e+00 9.402446383127712748e-01 5.386940835410296557e-01 9.402446383127712748e-01 -5.888209093932696092e+00 -1.910521675479389947e-01 5.386940835410296557e-01 -1.910521675479389947e-01 -1.958660424124544264e+01
-4.443660365782516664e+00 1.364923037217941948e+00 1.138279821430224104e+00 1.364923037217941948e+00 -5.961491526988043965e+00 -6.131232520831615407e-01 1.138279821430224104e+00 -6.131232520831615407e-01 -1.844501095780340805e+01
-4.079692557727597979e+00 1.067242575748997169e+00 1.492711618595055079e+00 1.067242575748997169e+00 -4.726958350067233638e+00 -4.426036851985644671e-01 1.492711618595055079e+00 -4.426036851985644671e-01 -1.663671169779580694e+01
-1.568897103066943632e+00 1.310760909542212804e+00 1.617271234259384904e+00 1.310760909542212804e+00 -2.041744427866920564e+00 1.370252339506516481e+00 1.617271234259384904e+00 1.370252339506516481e+00 -1.520281553877284786e+01
-4.831739796309525992e-01 1.289570444836453333e+00 9.030783376411486429e-01 1.289570444836453333e+00 -7.072823064478873656e-01 3.352710542706768493e+00 9.030783376411486429e-01 3.352710542706768493e+00 -1.576095584198973931e+01
-3.161827367756881557e+00 6.757108678617786968e-01 -5.945461371972807774e-01 6.757108678617786968e-01 -2.239827894583817258e+00 3.395622591712165406e+00 -5.945461371972807774e-01 3.395622591712165406e+00 -1.867943990400138787e+01
-5.929014770912370835e+00 2.516541202994428961e-01 -1.287053662215461802e+00 2.516541202994428961e-01 -3.722212858347897058e+00 2.332405661066768943e+00 -1.287053662215461802e+00 2.332405661066768943e+00 -2.043253290349529649e+01
-7.569963075248854700e+00 1.457561158200198007e-02 -1.062402144904787793e+00 1.457561158200198007e-02 -4.280522154162841986e+00 1.498952273823125347e+00 -1.062402144904787793e+00 1.498952273823125347e+00 -2.041096220544392281e+01
-7.607865700811990095e+00 5.507408416021791764e-01 -7.806914839517755667e-01 5.507408416021791764e-01 -5.382426318862330916e+00 2.827360838961932021e+00 -7.806914839517755667e-01 2.827360838961932021e+00 -2.133337812466218253e+01
-5.939341425743345226e+00 7.650838104316690647e-01 -1.245789291041073499e+00 7.650838104316690647e-01 -4.847136229082066983e+00 3.403691988269157864e+00 -1.245789291041073499e+00 3.403691988269157864e+00 -2.085343311074401740e+01
-5.242518554024903743e+00 8.840968476099286821e-01 -1.425241323822715289e+00 8.840968476099286821e-01 -4.465152602984797880e+00 2.768992002684689258e+00 -1.425241323822715289e+00 2.768992002684689258e+00 -2.045872675619338565e+01
-5.368852591968781951e+00 9.770548474384979087e-01 -9.144249835103677171e-01 9.770548474384979087e-01 -4.114118764130801686e+00 1.205967392400059568e+00 -9.144249835103677171e-01 1.205967392400059568e+00 -1.944372099959231193e+01
-5.092465197854413539e+00 1.356008677670688556e+00 -4.520129516401135694e-01 1.356008677670688556e+00 -3.656486808605452943e+00 8.315642914154172116e-01 -4.520129516401135694e-01 8.315642914154172116e-01 -1.890906463205473997e+01
-3.943031864952744492e+00 1.843455755852389633e+00 2.818856890009948102e-01 1.843455755852389633e+00 -2.910813005150065358e+00 7.068598249527568989e-01 2.818856890009948102e-01 7.068598249527568989e-01 -1.833527440716823165e+01
-3.066769031352521324e+00 1.999985149798236828e+00 3.365487590209500501e-01 1.999985149798236828e+00 -1.863994391965661857e+00 1.727768251585800052e-01 3.365487590209500501e-01 1.727768251585800052e-01 -1.887629817438240920e+01
-2.503444276645383493e+00 1.103153502835088950e+00 -1.308992522712595141e+00 1.103153502835088950e+00 -1.261535779909580102e+00 4.397368464816075462e-01 -1.308992522712595141e+00 4.397368464816075462e-01 -2.061286611196678464e+01
-5.377585888018121540e-01 -6.932438499096941209e-01 -3.343530623362575671e+00 -6.932438499096941209e-01 -8.192157608577460559e-01 1.167600037192280338e+00 -3.343530623362575671e+00 1.167600037192280338e+00 -2.076122954215674810e+01
1.114530325953960066e+00 -4.733482671442034162e-01 -3.557034664651735678e+00 -4.733482671442034162e-01 -1.213650520161503987e+00 5.617555377252241300e-01 -3.557034664651735678e+00 5.617555377252241300e-01 -1.984270648814361948e+01
1.541647046631026807e+00 1.474864793150756803e+00 -2.414976651565058141e+00 1.474864793150756803e+00 -1.470603765499869375e+00 -8.004756888237435364e-01 -2.414976651565058141e+00 -8.004756888237435364e-01 -2.037626440379384718e+01
1.890218421913404612e+00 2.562295948917060695e+00 -1.430655122410316116e+00 2.562295948917060695e+00 -9.231824213594298778e-02 -1.699932756506630893e+00 -1.430655122410316116e+00 -1.699932756506630893e+00 -2.041737185327004056e+01
1.842616828312058974e+00 2.313448312835270748e+00 -7.566221096291984027e-01 2.313448312835270748e+00 1.271850363840694387e+00 -2.000202425995732725e+00 -7.566221096291984027e-01 -2.000202425995732725e+00 -1.932639185294464212e+01
1.538176662921026283e+00 1.421384671317166948e+00 -2.863458864995866993e-01 1.421384671317166948e+00 2.076454300416855858e+00 -2.352304539487414914e+00 -2.863458864995866993e-01 -2.352304539487414914e+00 -1.851013346255280823e+01
1.521826629059476188e+00 9.201828027440032143e-01 -2.220260965909345019e-01 9.201828027440032143e-01 2.482108961141293424e+00 -2.578205394933689387e+00 -2.220260965909345019e-01 -2.578205394933689387e+00 -1.848270837806891009e+01
1.495783662609646791e+00 -1.429435961524367915e-01 -1.603619046516739644e-01 -1.429435961524367915e-01 3.619350685183482685e+00 -2.942921598779982162e+00 -1.603619046516739644e-01 -2.942921598779982162e+00 -1.910038235939962092e+01
1.498493579628412009e+00 -3.717535384651809438e-01 -3.467305630535948979e-01 -3.717535384651809438e-01 4.093960361363147449e+00 -2.066845864127602628e+00 -3.467305630535948979e-01 -2.066845864127602628e+00 -1.951546439291539770e+01
2.742912823535276878e+00 -4.945387318499627760e-01 -1.059686192436091856e+00 -4.945387318499627760e-01 3.804077701204325201e+00 -6.144691574176487370e-01 -1.059686192436091856e+00 -6.144691574176487370e-01 -1.838857950095383842e+01
4.327121863075735320e+00 -3.256125237470007538e-02 -2.008006262755785976e+00 -3.256125237470007538e-02 3.262571097995712766e+00 2.207767584553343432e-01 -2.008006262755785976e+00 2.207767584553343432e-01 -1.660976944930634502e+01
4.522622157222405903e+00 1.546946171669949244e-01 -2.212095002153465551e+00 1.546946171669949244e-01 3.133768561030286559e+00 3.332594388088626625e-01 -2.212095002153465551e+00 3.332594388088626625e-01 -1.646284849164974773e+01
4.280461799663537903e+00 1.214290277854130240e+00 -2.927959718402432632e+00 1.214290277854130240e+00 3.111871948682666034e+00 4.100786455234470274e-01 -2.927959718402432632e+00 4.100786455234470274e-01 -1.632603087717670576e+01
2.829871586132993055e+00 1.811781714617463512e+00 -2.955571901834175730e+00 1.811781714617463512e+00 4.282664738888147582e+00 -3.516615256467607864e-01 -2.955571901834175730e+00 -3.516615256467607864e-01 -1.593647276141673785e+01
1.869534935001801568e+00 1.365092029815994090e+00 -2.417903844781319922e+00 1.365092029815994090e+00 5.144895151400107558e+00 -1.383820030950135616e+00 -2.417903844781319922e+00 -1.383820030950135616e+00 -1.637270301148876328e+01
1.494135984778637738e+00 2.004252212899054753e-01 -1.402523890284555597e+00 2.004252212899054753e-01 5.313398878007938642e+00 -2.495344702838738993e+00 -1.402523890284555597e+00 -2.495344702838738993e+00 -1.827061663206347220e+01
1.902923044016971543e+00 -3.678123896606064758e-01 -5.786427266305829153e-01 -3.678123896606064758e-01 6.011048606366850677e+00 -3.119361942046336988e+00 -5.786427266305829153e-01 -3.119361942046336988e+00 -1.920718568136861037e+01
2.521629087285785609e+00 -1.115327005344777689e+00 -5.298521493929415904e-02 -1.115327005344777689e+00 6.603766002235209598e+00 -2.825731267480714237e+00 -5.298521493929415904e-02 -2.825731267480714237e+00 -1.867634975363700534e+01
2.429811787494069009e+00 -1.709921426141501888e+00 -2.162501710075076522e-02 -1.709921426141501888e+00 6.266933577067529626e+00 -2.151414588552866380e+00 -2.162501710075076522e-02 -2.151414588552866380e+00 -1.798677545728501670e+01
1.663182901880208453e+00 -1.856172448855817336e+00 -1.683045567601272052e-01 -1.856172448855817336e+00 5.556663722904076508e+00 -6.875705269750845838e-01 -1.683045567601272052e-01 -6.875705269750845838e-01 -1.697276554992246389e+01
9.939118590942045417e-01 -8.449690257109148117e-01 -4.430140957938341062e-01 -8.449690257109148117e-01 4.357027517481044221e+00 3.463201524583253144e-01 -4.430140957938341062e-01 3.463201524583253144e-01 -1.783778434030228155e+01
9.437451992724237293e-01 -4.849061537609876127e-01 -6.662895305203687668e-01 -4.849061537609876127e-01 3.421424140164777583e+00 8.070664001477791949e-01 -6.662895305203687668e-01 8.070664001477791949e-01 -1.824095843110531234e+01
1.418089315655149285e+00 -9.104657283560019243e-01 -1.258017112600136045e+00 -9.104657283560019243e-01 2.455046003653220232e+00 6.641650521448554390e-01 -1.258017112600136045e+00 6.641650521448554390e-01 -1.882687991035199815e+01
1.729482319366043797e+00 -1.365568830360498476e+00 -2.037936058960815977e+00 -1.365568830360498476e+00 3.186771882319372029e+00 -6.511405511949753810e-01 -2.037936058960815977e+00 -6.511405511949753810e-01 -1.935784258253213963e+01
1.905729528234624270e+00 -1.109816639558289797e+00 -1.979289591986773234e+00 -1.109816639558289797e+00 4.652287763527883868e+00 -2.327867002719081313e+00 -1.979289591986773234e+00 -2.327867002719081313e+00 -1.956841339515511180e+01
1.733761453366722494e+00 -7.934142124051337674e-01 -8.185277195656764926e-01 -7.934142124051337674e-01 4.139654752786475100e+00 -3.206598335340852923e+00 -8.185277195656764926e-01 -3.206598335340852923e+00 -2.036148962236414306e+01
1.542075563576087660e+00 -9.127773056793587747e-01 5.691731056897295637e-01 -9.127773056793587747e-01 2.244553651879348521e+00 -2.955215810288279510e+00 5.691731056897295637e-01 -2.955215810288279510e+00 -2.131315333194529416e+01
1.257866226351875172e+00 -1.128134230097161961e+00 1.544290573700557667e+00 -1.128134230097161961e+00 8.673605449528308808e-01 -1.730496274954356872e+00 1.544290573700557667e+00 -1.730496274954356872e+00 -2.135418232057239507e+01
1.251812670071648370e-01 -1.253931112997231256e+00 1.923033163185182914e+00 -1.253931112997231256e+00 1.752694659798498811e-01 -5.599690445458151838e-02 1.923033163185182914e+00 -5.599690445458151838e-02 -2.062916786222888987e+01
-1.001413923357735936e+00 -1.490255190473367630e+00 1.283957476401148323e+00 -1.490255190473367630e+00 -3.626460445201535876e-01 7.204878708956804489e-01 1.283957476401148323e+00 7.204878708956804489e-01 -2.055478697728619863e+01
-1.088101090708582630e+00 -2.084861682169952601e+00 3.012293060280409399e-02 -2.084861682169952601e+00 -1.007340735189423908e+00 2.803828619683163548e-01 3.012293060280409399e-02 2.803828619683163548e-01 -2.134097675612460421e+01
-2.558849707006782270e-01 -2.865860974068180411e+00 -1.253925077547300759e+00 -2.865860974068180411e+00 -6.069731286040476181e-01 -3.917670904345053606e-01 -1.253925077547300759e+00 -3.917670904345053606e-01 -2.143379594060477444e+01
5.803507589608962736e-01 -3.570873951342224295e+00 -2.795523840578884478e+00 -3.570873951342224295e+00 7.346349655326214756e-02 -4.520370934398353358e-01 -2.795523840578884478e+00 -4.520370934398353358e-01 -2.093623948378959199e+01
-7.145912363136449619e-01 -3.470528560798801898e+00 -3.925836868100933241e+00 -3.470528560798801898e+00 -2.469947529531466013e-01 -4.763780630092821072e-02 -3.925836868100933241e+00 -4.763780630092821072e-02 -2.097738314596537279e+01
-2.709772167967255285e+00 -2.752376409026199955e+00 -3.831309651290450979e+00 -2.752376409026199955e+00 -4.732999835447599529e-02 4.728654311497685336e-01 -3.831309651290450979e+00 4.728654311497685336e-01 -2.021657846953437954e+01
-3.565683464402049196e+00 -2.251892758994757937e+00 -2.507445779949262654e+00 -2.251892758994757937e+00 6.485211659251662875e-01 1.485849312024149604e+00 -2.507445779949262654e+00 1.485849312024149604e+00 -1.879859175652804737e+01