   37   37 3000    1
  0.3593803E+02  0.8567900E-09  0.8567900E-09  0.1811370E-08  0.1000000E-14
    300.0000000000000     
  CAR 
 AIMD-MLFF-ON-THE-FLY                    
    111      1    128
