 running  128 mpi-ranks, on    1 nodes
 distrk:  each k-point on  128 cores,    1 groups
 distr:  one band on    1 cores,  128 groups
 vasp.6.4.0 14Feb23 (build Mar 16 2023 23:21:51) complex                         
 POSCAR found type information on POSCAR Al
 POSCAR found :  1 types and      37 ions
 Reading from existing POTCAR
 scaLAPACK will be used selectively (only on CPU)
 -----------------------------------------------------------------------------
|                                                                             |
|           W    W    AA    RRRRR   N    N  II  N    N   GGGG   !!!           |
|           W    W   A  A   R    R  NN   N  II  NN   N  G    G  !!!           |
|           W    W  A    A  R    R  N N  N  II  N N  N  G       !!!           |
|           W WW W  AAAAAA  RRRRR   N  N N  II  N  N N  G  GGG   !            |
|           WW  WW  A    A  R   R   N   NN  II  N   NN  G    G                |
|           W    W  A    A  R    R  N    N  II  N    N   GGGG   !!!           |
|                                                                             |
|     For optimal performance we recommend to set                             |
|       NCORE = 2 up to number-of-cores-per-socket                            |
|     NCORE specifies how many cores store one orbital (NPAR=cpu/NCORE).      |
|     This setting can greatly improve the performance of VASP for DFT.       |
|     The default, NCORE=1 might be grossly inefficient on modern             |
|     multi-core architectures or massively parallel machines. Do your        |
|     own testing! More info at https://www.vasp.at/wiki/index.php/NCORE      |
|     Unfortunately you need to use the default for GW and RPA                |
|     calculations (for HF NCORE is supported but not extensively tested      |
|     yet).                                                                   |
|                                                                             |
 -----------------------------------------------------------------------------

 Reading from existing POTCAR
 LDA part: xc-table for Pade appr. of Perdew
 POSCAR found type information on POSCAR Al
 POSCAR found :  1 types and      37 ions
 Machine learning selected
 Setting communicators for machine learning
 Initializing machine learning
 ML_MB is set to:             1500
 ML_MCONF is set to:          1500
 POSCAR, INCAR and KPOINTS ok, starting setup
 FFT: planning ... GRIDC
 FFT: planning ... GRID_SOFT
 FFT: planning ... GRID
 WAVECAR not read
 entering main loop
       N       E                     dE             d eps       ncg     rms          rms(c)
DAV:   1     0.777230440182E+02    0.77723E+02   -0.34864E+04   256   0.520E+02
DAV:   2    -0.128016385620E+03   -0.20574E+03   -0.20571E+03   384   0.595E+01
DAV:   3    -0.130147329310E+03   -0.21309E+01   -0.21309E+01   384   0.892E+00
DAV:   4    -0.130164787436E+03   -0.17458E-01   -0.17458E-01   512   0.820E-01
DAV:   5    -0.130164886911E+03   -0.99475E-04   -0.99475E-04   256   0.562E-02    0.104E+01
DAV:   6    -0.123824346003E+03    0.63405E+01   -0.15720E+02   512   0.796E+00    0.725E+00
DAV:   7    -0.120456801604E+03    0.33675E+01   -0.28839E+01   256   0.441E+00    0.396E+00
DAV:   8    -0.120213377585E+03    0.24342E+00   -0.31121E+00   384   0.170E+00    0.160E+00
DAV:   9    -0.120120206381E+03    0.93171E-01   -0.26803E+00   512   0.144E+00    0.110E+00
DAV:  10    -0.120064277159E+03    0.55929E-01   -0.54925E-01   384   0.688E-01    0.581E-01
DAV:  11    -0.120040731354E+03    0.23546E-01   -0.60562E-02   384   0.301E-01    0.344E-01
DAV:  12    -0.120035809149E+03    0.49222E-02   -0.13266E-02   384   0.119E-01    0.187E-01
DAV:  13    -0.120031272749E+03    0.45364E-02   -0.71859E-03   512   0.772E-02    0.762E-02
DAV:  14    -0.120031670766E+03   -0.39802E-03   -0.20105E-03   256   0.391E-02    0.653E-02
DAV:  15    -0.120033635745E+03   -0.19650E-02   -0.12630E-03   384   0.355E-02    0.415E-02
DAV:  16    -0.120036083368E+03   -0.24476E-02   -0.14599E-03   256   0.389E-02    0.249E-02
DAV:  17    -0.120037474334E+03   -0.13910E-02   -0.21926E-04   512   0.171E-02    0.151E-02
DAV:  18    -0.120038206390E+03   -0.73206E-03   -0.51944E-05   384   0.880E-03    0.956E-03
DAV:  19    -0.120038592700E+03   -0.38631E-03   -0.23997E-05   384   0.570E-03    0.331E-03
DAV:  20    -0.120038676854E+03   -0.84153E-04   -0.63407E-06   256   0.239E-03    0.212E-03
DAV:  21    -0.120038699283E+03   -0.22430E-04   -0.19426E-06   384   0.118E-03    0.903E-04
DAV:  22    -0.120038706528E+03   -0.72448E-05   -0.58771E-07   256   0.645E-04
      1 T=   300. E= -.11864406E+03 F= -.12003871E+03 E0= -.11988411E+03  EK= 0.13946E+01 SP= 0.00E+00 SK= 0.00E+00
 bond charge predicted
       N       E                     dE             d eps       ncg     rms          rms(c)
DAV:   1    -0.120034269638E+03    0.44296E-02   -0.16328E-01   256   0.606E-01    0.173E-01
DAV:   2    -0.120033606780E+03    0.66286E-03   -0.25266E-02   384   0.176E-01    0.104E-01
DAV:   3    -0.120033254637E+03    0.35214E-03   -0.70073E-03   384   0.773E-02    0.523E-02
DAV:   4    -0.120033180758E+03    0.73879E-04   -0.14987E-03   384   0.382E-02    0.418E-02
DAV:   5    -0.120033170105E+03    0.10652E-04   -0.19860E-04   256   0.150E-02    0.258E-02
DAV:   6    -0.120033172041E+03   -0.19359E-05   -0.94930E-05   256   0.901E-03
      2 T=   299. E= -.11864266E+03 F= -.12003317E+03 E0= -.11987753E+03  EK= 0.13905E+01 SP= -.31E-04 SK= 0.55E-07
 bond charge predicted
       N       E                     dE             d eps       ncg     rms          rms(c)
DAV:   1    -0.120029833712E+03    0.33364E-02   -0.16029E-01   256   0.604E-01    0.171E-01
DAV:   2    -0.120029178018E+03    0.65569E-03   -0.24127E-02   384   0.176E-01    0.106E-01
DAV:   3    -0.120028828521E+03    0.34950E-03   -0.69638E-03   384   0.778E-02    0.538E-02
DAV:   4    -0.120028753420E+03    0.75101E-04   -0.15162E-03   384   0.384E-02    0.431E-02
DAV:   5    -0.120028743727E+03    0.96930E-05   -0.19323E-04   256   0.150E-02    0.265E-02
DAV:   6    -0.120028746574E+03   -0.28469E-05   -0.93181E-05   256   0.897E-03
      3 T=   298. E= -.11864270E+03 F= -.12002875E+03 E0= -.11987268E+03  EK= 0.13862E+01 SP= -.18E-03 SK= 0.87E-06
 bond charge predicted
       N       E                     dE             d eps       ncg     rms          rms(c)
DAV:   1    -0.120026561701E+03    0.21820E-02   -0.16007E-01   256   0.603E-01    0.170E-01
DAV:   2    -0.120025899429E+03    0.66227E-03   -0.23938E-02   384   0.175E-01    0.105E-01
DAV:   3    -0.120025563071E+03    0.33636E-03   -0.69455E-03   384   0.775E-02    0.539E-02
DAV:   4    -0.120025486577E+03    0.76493E-04   -0.15274E-03   384   0.385E-02    0.429E-02
DAV:   5    -0.120025477385E+03    0.91922E-05   -0.19246E-04   256   0.149E-02    0.263E-02
DAV:   6    -0.120025480612E+03   -0.32265E-05   -0.91351E-05   256   0.890E-03
      4 T=   297. E= -.11864273E+03 F= -.12002548E+03 E0= -.11986947E+03  EK= 0.13833E+01 SP= -.57E-03 SK= 0.39E-05
 bond charge predicted
       N       E                     dE             d eps       ncg     rms          rms(c)
DAV:   1    -0.120024482683E+03    0.99470E-03   -0.15931E-01   256   0.602E-01    0.170E-01
DAV:   2    -0.120023804118E+03    0.67857E-03   -0.22911E-02   384   0.174E-01    0.104E-01
DAV:   3    -0.120023487076E+03    0.31704E-03   -0.67879E-03   384   0.768E-02    0.539E-02
DAV:   4    -0.120023409255E+03    0.77822E-04   -0.15378E-03   384   0.385E-02    0.425E-02
DAV:   5    -0.120023400543E+03    0.87113E-05   -0.19076E-04   256   0.149E-02    0.259E-02
DAV:   6    -0.120023403983E+03   -0.34400E-05   -0.90156E-05   384   0.885E-03
      5 T=   297. E= -.11864279E+03 F= -.12002340E+03 E0= -.11986792E+03  EK= 0.13819E+01 SP= -.12E-02 SK= 0.10E-04
 bond charge predicted
       N       E                     dE             d eps       ncg     rms          rms(c)
DAV:   1    -0.120023533301E+03   -0.13276E-03   -0.15880E-01   256   0.602E-01    0.169E-01
DAV:   2    -0.120022829676E+03    0.70363E-03   -0.22041E-02   384   0.173E-01    0.103E-01
DAV:   3    -0.120022538253E+03    0.29142E-03   -0.65051E-03   384   0.757E-02    0.538E-02
DAV:   4    -0.120022459433E+03    0.78820E-04   -0.15468E-03   384   0.385E-02    0.422E-02
DAV:   5    -0.120022451306E+03    0.81272E-05   -0.19252E-04   384   0.149E-02    0.258E-02
DAV:   6    -0.120022454053E+03   -0.27473E-05   -0.79682E-05   256   0.814E-03
      6 T=   297. E= -.11864281E+03 F= -.12002245E+03 E0= -.11986796E+03  EK= 0.13819E+01 SP= -.23E-02 SK= 0.21E-04
 bond charge predicted
       N       E                     dE             d eps       ncg     rms          rms(c)
DAV:   1    -0.120023859291E+03   -0.14080E-02   -0.15906E-01   256   0.602E-01    0.168E-01
DAV:   2    -0.120023124794E+03    0.73450E-03   -0.21385E-02   384   0.172E-01    0.101E-01
DAV:   3    -0.120022863052E+03    0.26174E-03   -0.62806E-03   384   0.746E-02    0.536E-02
DAV:   4    -0.120022782817E+03    0.80235E-04   -0.15792E-03   512   0.386E-02    0.429E-02
DAV:   5    -0.120022774598E+03    0.82199E-05   -0.18257E-04   384   0.144E-02    0.255E-02
DAV:   6    -0.120022777307E+03   -0.27099E-05   -0.75719E-05   384   0.788E-03
      7 T=   297. E= -.11864282E+03 F= -.12002278E+03 E0= -.11986970E+03  EK= 0.13835E+01 SP= -.36E-02 SK= 0.33E-04
 bond charge predicted
       N       E                     dE             d eps       ncg     rms          rms(c)
DAV:   1    -0.120025682581E+03   -0.29080E-02   -0.15994E-01   256   0.603E-01    0.167E-01
DAV:   2    -0.120024909085E+03    0.77350E-03   -0.20699E-02   384   0.171E-01    0.987E-02
DAV:   3    -0.120024681916E+03    0.22717E-03   -0.59525E-03   384   0.727E-02    0.534E-02
DAV:   4    -0.120024601363E+03    0.80553E-04   -0.15845E-03   512   0.385E-02    0.423E-02
DAV:   5    -0.120024593476E+03    0.78869E-05   -0.18597E-04   384   0.145E-02    0.248E-02
DAV:   6    -0.120024596122E+03   -0.26454E-05   -0.74498E-05   384   0.785E-03
      8 T=   298. E= -.11864285E+03 F= -.12002460E+03 E0= -.11987336E+03  EK= 0.13870E+01 SP= -.53E-02 SK= 0.46E-04
 bond charge predicted
       N       E                     dE             d eps       ncg     rms          rms(c)
DAV:   1    -0.120029059712E+03   -0.44662E-02   -0.16100E-01   256   0.604E-01    0.167E-01
DAV:   2    -0.120028245144E+03    0.81457E-03   -0.19926E-02   384   0.169E-01    0.962E-02
DAV:   3    -0.120028053950E+03    0.19119E-03   -0.55409E-03   384   0.705E-02    0.531E-02
DAV:   4    -0.120027974066E+03    0.79884E-04   -0.15791E-03   512   0.382E-02    0.417E-02
DAV:   5    -0.120027966495E+03    0.75709E-05   -0.18925E-04   384   0.145E-02    0.241E-02
DAV:   6    -0.120027969116E+03   -0.26212E-05   -0.73880E-05   384   0.783E-03
      9 T=   299. E= -.11864287E+03 F= -.12002797E+03 E0= -.11987896E+03  EK= 0.13922E+01 SP= -.71E-02 SK= 0.55E-04
 bond charge predicted
       N       E                     dE             d eps       ncg     rms          rms(c)
DAV:   1    -0.120033956321E+03   -0.59898E-02   -0.16269E-01   256   0.605E-01    0.166E-01
DAV:   2    -0.120033100329E+03    0.85599E-03   -0.19190E-02   384   0.168E-01    0.935E-02
DAV:   3    -0.120032944371E+03    0.15596E-03   -0.50851E-03   384   0.679E-02    0.526E-02
DAV:   4    -0.120032866529E+03    0.77842E-04   -0.15605E-03   512   0.378E-02    0.411E-02
DAV:   5    -0.120032859217E+03    0.73121E-05   -0.19308E-04   384   0.145E-02    0.233E-02
DAV:   6    -0.120032861854E+03   -0.26372E-05   -0.73264E-05   384   0.783E-03
     10 T=   301. E= -.11864288E+03 F= -.12003286E+03 E0= -.11988645E+03  EK= 0.13990E+01 SP= -.91E-02 SK= 0.55E-04
     11 T=   302. E= -.11864171E+03 F= -.12003748E+03 E0= -.12003748E+03  EK= 0.14067E+01 SP= -.11E-01 SK= 0.45E-04
     12 T=   304. E= -.11864172E+03 F= -.12004386E+03 E0= -.12004386E+03  EK= 0.14146E+01 SP= -.13E-01 SK= 0.28E-04
     13 T=   306. E= -.11864172E+03 F= -.12005123E+03 E0= -.12005123E+03  EK= 0.14231E+01 SP= -.14E-01 SK= 0.98E-05
     14 T=   308. E= -.11864172E+03 F= -.12005951E+03 E0= -.12005951E+03  EK= 0.14318E+01 SP= -.14E-01 SK= 0.19E-07
     15 T=   310. E= -.11864173E+03 F= -.12006867E+03 E0= -.12006867E+03  EK= 0.14405E+01 SP= -.14E-01 SK= 0.14E-04
     16 T=   311. E= -.11864173E+03 F= -.12007867E+03 E0= -.12007867E+03  EK= 0.14489E+01 SP= -.12E-01 SK= 0.69E-04
     17 T=   313. E= -.11864173E+03 F= -.12008948E+03 E0= -.12008948E+03  EK= 0.14567E+01 SP= -.91E-02 SK= 0.19E-03
     18 T=   315. E= -.11864173E+03 F= -.12010109E+03 E0= -.12010109E+03  EK= 0.14637E+01 SP= -.47E-02 SK= 0.39E-03
     19 T=   316. E= -.11864172E+03 F= -.12011354E+03 E0= -.12011354E+03  EK= 0.14698E+01 SP= 0.14E-02 SK= 0.70E-03
 bond charge predicted
       N       E                     dE             d eps       ncg     rms          rms(c)
DAV:   1    -0.120207680142E+03   -0.17482E+00   -0.17253E+01   256   0.612E+00
DAV:   2    -0.120255886506E+03   -0.48206E-01   -0.48206E-01   512   0.134E+00
DAV:   3    -0.120255976513E+03   -0.90006E-04   -0.90006E-04   384   0.571E-02
DAV:   4    -0.120255978985E+03   -0.24719E-05   -0.24720E-05   512   0.693E-03    0.128E+00
DAV:   5    -0.120126509850E+03    0.12947E+00   -0.97219E-01   384   0.876E-01    0.509E-01
DAV:   6    -0.120124820668E+03    0.16892E-02   -0.30913E-01   384   0.492E-01    0.374E-01
DAV:   7    -0.120115535962E+03    0.92847E-02   -0.13795E-01   512   0.330E-01    0.195E-01
DAV:   8    -0.120115106647E+03    0.42932E-03   -0.11725E-02   384   0.115E-01    0.105E-01
DAV:   9    -0.120115292812E+03   -0.18617E-03   -0.18820E-03   384   0.497E-02    0.505E-02
DAV:  10    -0.120115365757E+03   -0.72945E-04   -0.62717E-04   384   0.234E-02    0.239E-02
DAV:  11    -0.120115403252E+03   -0.37496E-04   -0.17384E-04   384   0.119E-02    0.123E-02
DAV:  12    -0.120115433213E+03   -0.29960E-04   -0.23147E-05   384   0.544E-03    0.645E-03
DAV:  13    -0.120115459410E+03   -0.26197E-04   -0.58426E-06   384   0.257E-03    0.282E-03
DAV:  14    -0.120115473082E+03   -0.13673E-04   -0.19828E-06   384   0.130E-03    0.148E-03
DAV:  15    -0.120115481335E+03   -0.82530E-05   -0.10627E-06   384   0.839E-04
     20 T=   316. E= -.11863325E+03 F= -.12011548E+03 E0= -.12000175E+03  EK= 0.14718E+01 SP= 0.93E-02 SK= 0.11E-02
     21 T=   317. E= -.11863875E+03 F= -.12013332E+03 E0= -.12013332E+03  EK= 0.14738E+01 SP= 0.19E-01 SK= 0.17E-02
     22 T=   318. E= -.11863874E+03 F= -.12015035E+03 E0= -.12015035E+03  EK= 0.14785E+01 SP= 0.31E-01 SK= 0.23E-02
     23 T=   319. E= -.11863873E+03 F= -.12016902E+03 E0= -.12016902E+03  EK= 0.14825E+01 SP= 0.45E-01 SK= 0.32E-02
     24 T=   319. E= -.11863872E+03 F= -.12018939E+03 E0= -.12018939E+03  EK= 0.14860E+01 SP= 0.60E-01 SK= 0.42E-02
     25 T=   320. E= -.11863871E+03 F= -.12021157E+03 E0= -.12021157E+03  EK= 0.14888E+01 SP= 0.79E-01 SK= 0.54E-02
     26 T=   320. E= -.11863870E+03 F= -.12023564E+03 E0= -.12023564E+03  EK= 0.14911E+01 SP= 0.99E-01 SK= 0.68E-02
     27 T=   321. E= -.11863870E+03 F= -.12026166E+03 E0= -.12026166E+03  EK= 0.14927E+01 SP= 0.12E+00 SK= 0.84E-02
     28 T=   321. E= -.11863869E+03 F= -.12028971E+03 E0= -.12028971E+03  EK= 0.14938E+01 SP= 0.15E+00 SK= 0.10E-01
     29 T=   321. E= -.11863868E+03 F= -.12031984E+03 E0= -.12031984E+03  EK= 0.14943E+01 SP= 0.17E+00 SK= 0.12E-01
 bond charge predicted
       N       E                     dE             d eps       ncg     rms          rms(c)
DAV:   1    -0.120240389878E+03   -0.12492E+00   -0.18733E+01   256   0.625E+00
DAV:   2    -0.120292618839E+03   -0.52229E-01   -0.52229E-01   512   0.140E+00
DAV:   3    -0.120292716764E+03   -0.97925E-04   -0.97925E-04   384   0.597E-02
DAV:   4    -0.120292719476E+03   -0.27122E-05   -0.27120E-05   512   0.723E-03    0.131E+00
DAV:   5    -0.120149895424E+03    0.14282E+00   -0.75368E-01   384   0.755E-01    0.446E-01
DAV:   6    -0.120144482635E+03    0.54128E-02   -0.64226E-02   384   0.279E-01    0.219E-01
DAV:   7    -0.120144573642E+03   -0.91007E-04   -0.25293E-02   512   0.150E-01    0.148E-01
DAV:   8    -0.120144208349E+03    0.36529E-03   -0.11036E-02   384   0.991E-02    0.816E-02
DAV:   9    -0.120144370362E+03   -0.16201E-03   -0.17671E-03   512   0.473E-02    0.362E-02
DAV:  10    -0.120144436967E+03   -0.66605E-04   -0.44971E-04   384   0.226E-02    0.209E-02
DAV:  11    -0.120144500259E+03   -0.63292E-04   -0.71215E-05   384   0.959E-03    0.913E-03
DAV:  12    -0.120144539922E+03   -0.39662E-04   -0.11899E-05   512   0.429E-03    0.476E-03
DAV:  13    -0.120144562566E+03   -0.22644E-04   -0.32610E-06   384   0.177E-03    0.249E-03
DAV:  14    -0.120144578372E+03   -0.15807E-04   -0.23711E-06   384   0.127E-03    0.121E-03
DAV:  15    -0.120144585597E+03   -0.72249E-05   -0.10195E-06   384   0.776E-04
     30 T=   317. E= -.11845001E+03 F= -.12014459E+03 E0= -.12005701E+03  EK= 0.14756E+01 SP= 0.20E+00 SK= 0.14E-01
     31 T=   313. E= -.11867569E+03 F= -.12038562E+03 E0= -.12038562E+03  EK= 0.14574E+01 SP= 0.24E+00 SK= 0.16E-01
 bond charge predicted
       N       E                     dE             d eps       ncg     rms          rms(c)
DAV:   1    -0.120139312705E+03    0.52657E-02   -0.75693E-01   384   0.125E+00
DAV:   2    -0.120140884861E+03   -0.15722E-02   -0.15722E-02   384   0.244E-01
DAV:   3    -0.120140898941E+03   -0.14080E-04   -0.14080E-04   512   0.229E-02
DAV:   4    -0.120140899010E+03   -0.69006E-07   -0.69077E-07   256   0.125E-03    0.273E-01
DAV:   5    -0.120134973107E+03    0.59259E-02   -0.33157E-02   384   0.148E-01    0.901E-02
DAV:   6    -0.120134813082E+03    0.16003E-03   -0.45627E-03   384   0.694E-02    0.511E-02
DAV:   7    -0.120134742441E+03    0.70640E-04   -0.20408E-03   256   0.435E-02    0.315E-02
DAV:   8    -0.120134737961E+03    0.44801E-05   -0.47448E-04   384   0.219E-02    0.193E-02
DAV:   9    -0.120134745970E+03   -0.80089E-05   -0.11985E-04   384   0.109E-02    0.984E-03
DAV:  10    -0.120134751569E+03   -0.55986E-05   -0.15864E-05   512   0.500E-03
     32 T=   309. E= -.11841046E+03 F= -.12013475E+03 E0= -.12005181E+03  EK= 0.14367E+01 SP= 0.27E+00 SK= 0.17E-01
     33 T=   301. E= -.11843117E+03 F= -.12015559E+03 E0= -.12015559E+03  EK= 0.14017E+01 SP= 0.31E+00 SK= 0.18E-01
     34 T=   295. E= -.11843117E+03 F= -.12016137E+03 E0= -.12016137E+03  EK= 0.13729E+01 SP= 0.34E+00 SK= 0.17E-01
     35 T=   289. E= -.11843118E+03 F= -.12016750E+03 E0= -.12016750E+03  EK= 0.13457E+01 SP= 0.37E+00 SK= 0.17E-01
     36 T=   284. E= -.11843120E+03 F= -.12017398E+03 E0= -.12017398E+03  EK= 0.13207E+01 SP= 0.41E+00 SK= 0.15E-01
     37 T=   279. E= -.11843121E+03 F= -.12018079E+03 E0= -.12018079E+03  EK= 0.12983E+01 SP= 0.44E+00 SK= 0.13E-01
     38 T=   275. E= -.11843123E+03 F= -.12018790E+03 E0= -.12018790E+03  EK= 0.12788E+01 SP= 0.47E+00 SK= 0.11E-01
     39 T=   271. E= -.11843125E+03 F= -.12019531E+03 E0= -.12019531E+03  EK= 0.12627E+01 SP= 0.49E+00 SK= 0.86E-02
     40 T=   269. E= -.11843126E+03 F= -.12020300E+03 E0= -.12020300E+03  EK= 0.12500E+01 SP= 0.52E+00 SK= 0.63E-02
     41 T=   267. E= -.11843127E+03 F= -.12021100E+03 E0= -.12021100E+03  EK= 0.12410E+01 SP= 0.53E+00 SK= 0.43E-02
 bond charge predicted
       N       E                     dE             d eps       ncg     rms          rms(c)
DAV:   1    -0.120207742501E+03   -0.72997E-01   -0.16735E+01   256   0.575E+00
DAV:   2    -0.120250927213E+03   -0.43185E-01   -0.43185E-01   512   0.127E+00
DAV:   3    -0.120250995179E+03   -0.67966E-04   -0.67966E-04   256   0.530E-02
DAV:   4    -0.120251001882E+03   -0.67033E-05   -0.67033E-05   512   0.129E-02    0.124E+00
DAV:   5    -0.120123952963E+03    0.12705E+00   -0.62826E-01   512   0.649E-01    0.421E-01
DAV:   6    -0.120117999218E+03    0.59537E-02   -0.68910E-02   384   0.273E-01    0.204E-01
DAV:   7    -0.120117446666E+03    0.55255E-03   -0.18382E-02   512   0.134E-01    0.121E-01
DAV:   8    -0.120117557946E+03   -0.11128E-03   -0.44629E-03   384   0.712E-02    0.676E-02
DAV:   9    -0.120117659897E+03   -0.10195E-03   -0.22140E-03   512   0.467E-02    0.359E-02
DAV:  10    -0.120117712807E+03   -0.52910E-04   -0.48393E-04   512   0.241E-02    0.146E-02
DAV:  11    -0.120117767743E+03   -0.54936E-04   -0.30258E-05   512   0.894E-03    0.810E-03
DAV:  12    -0.120117792400E+03   -0.24657E-04   -0.43440E-06   512   0.248E-03    0.535E-03
DAV:  13    -0.120117814409E+03   -0.22009E-04   -0.35604E-06   512   0.174E-03    0.172E-03
DAV:  14    -0.120117823732E+03   -0.93233E-05   -0.12769E-06   512   0.950E-04
     42 T=   265. E= -.11833116E+03 F= -.12011782E+03 E0= -.12005299E+03  EK= 0.12344E+01 SP= 0.55E+00 SK= 0.26E-02
     43 T=   265. E= -.11834995E+03 F= -.12014420E+03 E0= -.12014420E+03  EK= 0.12321E+01 SP= 0.56E+00 SK= 0.12E-02
     44 T=   265. E= -.11834995E+03 F= -.12015359E+03 E0= -.12015359E+03  EK= 0.12351E+01 SP= 0.57E+00 SK= 0.40E-03
     45 T=   267. E= -.11834995E+03 F= -.12016498E+03 E0= -.12016498E+03  EK= 0.12435E+01 SP= 0.57E+00 SK= 0.27E-04
     46 T=   270. E= -.11834995E+03 F= -.12017842E+03 E0= -.12017842E+03  EK= 0.12574E+01 SP= 0.57E+00 SK= 0.73E-04
     47 T=   274. E= -.11834995E+03 F= -.12019392E+03 E0= -.12019392E+03  EK= 0.12764E+01 SP= 0.57E+00 SK= 0.43E-03
     48 T=   279. E= -.11834994E+03 F= -.12021146E+03 E0= -.12021146E+03  EK= 0.13002E+01 SP= 0.56E+00 SK= 0.95E-03
     49 T=   285. E= -.11834994E+03 F= -.12023098E+03 E0= -.12023098E+03  EK= 0.13283E+01 SP= 0.55E+00 SK= 0.15E-02
     50 T=   292. E= -.11834995E+03 F= -.12025243E+03 E0= -.12025243E+03  EK= 0.13601E+01 SP= 0.54E+00 SK= 0.19E-02
     51 T=   300. E= -.11834996E+03 F= -.12027566E+03 E0= -.12027566E+03  EK= 0.13948E+01 SP= 0.53E+00 SK= 0.20E-02
 bond charge predicted
       N       E                     dE             d eps       ncg     rms          rms(c)
DAV:   1    -0.120424630114E+03   -0.30682E+00   -0.16426E+01   256   0.570E+00
DAV:   2    -0.120465438502E+03   -0.40808E-01   -0.40808E-01   512   0.123E+00
DAV:   3    -0.120465497239E+03   -0.58737E-04   -0.58737E-04   256   0.497E-02
DAV:   4    -0.120465503051E+03   -0.58118E-05   -0.58119E-05   512   0.121E-02    0.116E+00
DAV:   5    -0.120354261357E+03    0.11124E+00   -0.63587E-01   512   0.667E-01    0.421E-01
DAV:   6    -0.120347725254E+03    0.65361E-02   -0.84310E-02   384   0.294E-01    0.221E-01
DAV:   7    -0.120346529087E+03    0.11962E-02   -0.23545E-02   512   0.150E-01    0.117E-01
DAV:   8    -0.120346655205E+03   -0.12612E-03   -0.60244E-03   512   0.812E-02    0.724E-02
DAV:   9    -0.120346622759E+03    0.32446E-04   -0.24744E-03   384   0.486E-02    0.379E-02
DAV:  10    -0.120346690426E+03   -0.67667E-04   -0.24396E-04   256   0.221E-02    0.142E-02
DAV:  11    -0.120346721205E+03   -0.30779E-04   -0.18263E-05   512   0.726E-03    0.712E-03
DAV:  12    -0.120346743224E+03   -0.22019E-04   -0.44845E-06   512   0.243E-03    0.305E-03
DAV:  13    -0.120346756981E+03   -0.13757E-04   -0.14226E-06   512   0.123E-03    0.155E-03
DAV:  14    -0.120346767547E+03   -0.10566E-04   -0.13624E-06   512   0.935E-04    0.703E-04
DAV:  15    -0.120346772077E+03   -0.45298E-05   -0.49533E-07   512   0.509E-04
     52 T=   309. E= -.11839011E+03 F= -.12034677E+03 E0= -.12028733E+03  EK= 0.14375E+01 SP= 0.52E+00 SK= 0.19E-02
     53 T=   318. E= -.11833747E+03 F= -.12032638E+03 E0= -.12032638E+03  EK= 0.14808E+01 SP= 0.51E+00 SK= 0.14E-02
     54 T=   326. E= -.11833751E+03 F= -.12035331E+03 E0= -.12035331E+03  EK= 0.15168E+01 SP= 0.50E+00 SK= 0.75E-03
     55 T=   333. E= -.11833756E+03 F= -.12038103E+03 E0= -.12038103E+03  EK= 0.15505E+01 SP= 0.49E+00 SK= 0.20E-03
     56 T=   340. E= -.11833761E+03 F= -.12040920E+03 E0= -.12040920E+03  EK= 0.15804E+01 SP= 0.49E+00 SK= 0.37E-05
 bond charge predicted
       N       E                     dE             d eps       ncg     rms          rms(c)
DAV:   1    -0.120582317105E+03   -0.23555E+00   -0.50838E+00   512   0.325E+00
DAV:   2    -0.120592402758E+03   -0.10086E-01   -0.10086E-01   384   0.638E-01
DAV:   3    -0.120592475848E+03   -0.73090E-04   -0.73090E-04   512   0.524E-02
DAV:   4    -0.120592476251E+03   -0.40306E-06   -0.40300E-06   384   0.286E-03    0.653E-01
DAV:   5    -0.120559360548E+03    0.33116E-01   -0.27625E-01   384   0.459E-01    0.252E-01
DAV:   6    -0.120556770449E+03    0.25901E-02   -0.43141E-02   256   0.197E-01    0.142E-01
DAV:   7    -0.120556234813E+03    0.53564E-03   -0.94743E-03   512   0.985E-02    0.742E-02
DAV:   8    -0.120556256863E+03   -0.22049E-04   -0.32598E-03   512   0.569E-02    0.467E-02
DAV:   9    -0.120556224342E+03    0.32520E-04   -0.97735E-04   384   0.310E-02    0.233E-02
DAV:  10    -0.120556253038E+03   -0.28696E-04   -0.60520E-05   512   0.128E-02    0.984E-03
DAV:  11    -0.120556261529E+03   -0.84905E-05   -0.41917E-06   512   0.295E-03
     57 T=   347. E= -.11844881E+03 F= -.12055626E+03 E0= -.12049453E+03  EK= 0.16129E+01 SP= 0.49E+00 SK= 0.43E-03
     58 T=   353. E= -.11842227E+03 F= -.12056913E+03 E0= -.12056913E+03  EK= 0.16425E+01 SP= 0.50E+00 SK= 0.18E-02
     59 T=   357. E= -.11842231E+03 F= -.12060329E+03 E0= -.12060329E+03  EK= 0.16595E+01 SP= 0.52E+00 SK= 0.45E-02
     60 T=   358. E= -.11842233E+03 F= -.12063492E+03 E0= -.12063492E+03  EK= 0.16661E+01 SP= 0.54E+00 SK= 0.86E-02
     61 T=   357. E= -.11842231E+03 F= -.12066353E+03 E0= -.12066353E+03  EK= 0.16617E+01 SP= 0.57E+00 SK= 0.14E-01
     62 T=   354. E= -.11842227E+03 F= -.12068871E+03 E0= -.12068871E+03  EK= 0.16463E+01 SP= 0.60E+00 SK= 0.20E-01
     63 T=   348. E= -.11842219E+03 F= -.12071023E+03 E0= -.12071023E+03  EK= 0.16205E+01 SP= 0.64E+00 SK= 0.27E-01
     64 T=   341. E= -.11842211E+03 F= -.12072800E+03 E0= -.12072800E+03  EK= 0.15855E+01 SP= 0.69E+00 SK= 0.34E-01
     65 T=   332. E= -.11842202E+03 F= -.12074213E+03 E0= -.12074213E+03  EK= 0.15428E+01 SP= 0.74E+00 SK= 0.40E-01
     66 T=   321. E= -.11842193E+03 F= -.12075283E+03 E0= -.12075283E+03  EK= 0.14944E+01 SP= 0.79E+00 SK= 0.45E-01
 bond charge predicted
       N       E                     dE             d eps       ncg     rms          rms(c)
DAV:   1    -0.121008879636E+03   -0.45263E+00   -0.21479E+01   384   0.680E+00
DAV:   2    -0.121063135667E+03   -0.54256E-01   -0.54256E-01   512   0.145E+00
DAV:   3    -0.121063225189E+03   -0.89522E-04   -0.89522E-04   512   0.567E-02
DAV:   4    -0.121063225875E+03   -0.68590E-06   -0.68593E-06   512   0.359E-03    0.142E+00
DAV:   5    -0.120914814224E+03    0.14841E+00   -0.17270E+00   384   0.118E+00    0.578E-01
DAV:   6    -0.120897812827E+03    0.17001E-01   -0.34892E-01   512   0.553E-01    0.342E-01
DAV:   7    -0.120894373881E+03    0.34389E-02   -0.10108E-01   512   0.309E-01    0.217E-01
DAV:   8    -0.120892670419E+03    0.17035E-02   -0.29922E-02   384   0.163E-01    0.112E-01
DAV:   9    -0.120892704842E+03   -0.34423E-04   -0.24796E-03   384   0.641E-02    0.529E-02
DAV:  10    -0.120892779736E+03   -0.74894E-04   -0.14103E-04   512   0.203E-02    0.230E-02
DAV:  11    -0.120892824875E+03   -0.45140E-04   -0.31796E-05   512   0.711E-03    0.994E-03
DAV:  12    -0.120892862604E+03   -0.37728E-04   -0.57009E-06   512   0.323E-03    0.461E-03
DAV:  13    -0.120892896738E+03   -0.34134E-04   -0.33492E-06   512   0.174E-03    0.155E-03
DAV:  14    -0.120892926246E+03   -0.29508E-04   -0.29683E-06   512   0.138E-03    0.108E-03
DAV:  15    -0.120892950386E+03   -0.24140E-04   -0.30005E-06   512   0.120E-03    0.659E-04
DAV:  16    -0.120892966861E+03   -0.16475E-04   -0.31413E-06   512   0.107E-03    0.377E-04
DAV:  17    -0.120892969328E+03   -0.24672E-05   -0.28260E-07   512   0.335E-04
     67 T=   312. E= -.11854683E+03 F= -.12089297E+03 E0= -.12082190E+03  EK= 0.14499E+01 SP= 0.85E+00 SK= 0.48E-01
     68 T=   301. E= -.11840614E+03 F= -.12076474E+03 E0= -.12076474E+03  EK= 0.14028E+01 SP= 0.91E+00 SK= 0.50E-01
     69 T=   290. E= -.11840609E+03 F= -.12076691E+03 E0= -.12076691E+03  EK= 0.13475E+01 SP= 0.96E+00 SK= 0.49E-01
     70 T=   278. E= -.11840606E+03 F= -.12076756E+03 E0= -.12076756E+03  EK= 0.12941E+01 SP= 0.10E+01 SK= 0.46E-01
     71 T=   267. E= -.11840605E+03 F= -.12076738E+03 E0= -.12076738E+03  EK= 0.12442E+01 SP= 0.11E+01 SK= 0.41E-01
     72 T=   258. E= -.11840606E+03 F= -.12076703E+03 E0= -.12076703E+03  EK= 0.11993E+01 SP= 0.11E+01 SK= 0.35E-01
     73 T=   249. E= -.11840607E+03 F= -.12076718E+03 E0= -.12076718E+03  EK= 0.11605E+01 SP= 0.12E+01 SK= 0.27E-01
     74 T=   243. E= -.11840608E+03 F= -.12076841E+03 E0= -.12076841E+03  EK= 0.11287E+01 SP= 0.12E+01 SK= 0.20E-01
     75 T=   237. E= -.11840610E+03 F= -.12077126E+03 E0= -.12077126E+03  EK= 0.11046E+01 SP= 0.12E+01 SK= 0.13E-01
     76 T=   234. E= -.11840610E+03 F= -.12077624E+03 E0= -.12077624E+03  EK= 0.10887E+01 SP= 0.13E+01 SK= 0.76E-02
 bond charge predicted
       N       E                     dE             d eps       ncg     rms          rms(c)
DAV:   1    -0.121193515239E+03   -0.30055E+00   -0.15857E+01   384   0.594E+00
DAV:   2    -0.121234442718E+03   -0.40927E-01   -0.40927E-01   384   0.127E+00
DAV:   3    -0.121234791928E+03   -0.34921E-03   -0.34921E-03   512   0.111E-01
DAV:   4    -0.121234793996E+03   -0.20679E-05   -0.20678E-05   256   0.647E-03    0.128E+00
DAV:   5    -0.121128314405E+03    0.10648E+00   -0.20685E+00   384   0.127E+00    0.625E-01
DAV:   6    -0.121098196153E+03    0.30118E-01   -0.55527E-01   512   0.677E-01    0.349E-01
DAV:   7    -0.121093573801E+03    0.46224E-02   -0.11705E-01   512   0.323E-01    0.222E-01
DAV:   8    -0.121091798865E+03    0.17749E-02   -0.24001E-02   384   0.151E-01    0.106E-01
DAV:   9    -0.121091880090E+03   -0.81224E-04   -0.14905E-03   512   0.564E-02    0.475E-02
DAV:  10    -0.121091937061E+03   -0.56971E-04   -0.72324E-05   512   0.140E-02    0.213E-02
DAV:  11    -0.121091984371E+03   -0.47310E-04   -0.24781E-05   512   0.635E-03    0.709E-03
DAV:  12    -0.121092022041E+03   -0.37670E-04   -0.47874E-06   512   0.277E-03    0.351E-03
DAV:  13    -0.121092061410E+03   -0.39369E-04   -0.37783E-06   512   0.177E-03    0.153E-03
DAV:  14    -0.121092102999E+03   -0.41589E-04   -0.50259E-06   512   0.173E-03    0.115E-03
DAV:  15    -0.121092138227E+03   -0.35229E-04   -0.57272E-06   512   0.158E-03    0.662E-04
DAV:  16    -0.121092155015E+03   -0.16788E-04   -0.30285E-06   512   0.102E-03    0.323E-04
DAV:  17    -0.121092157948E+03   -0.29331E-05   -0.31520E-07   512   0.345E-04
     77 T=   234. E= -.11870548E+03 F= -.12109216E+03 E0= -.12101766E+03  EK= 0.10904E+01 SP= 0.13E+01 SK= 0.33E-02
     78 T=   236. E= -.11838751E+03 F= -.12079295E+03 E0= -.12079295E+03  EK= 0.11001E+01 SP= 0.13E+01 SK= 0.89E-03
     79 T=   238. E= -.11838749E+03 F= -.12080518E+03 E0= -.12080518E+03  EK= 0.11090E+01 SP= 0.13E+01 SK= 0.57E-05
     80 T=   242. E= -.11838747E+03 F= -.12082064E+03 E0= -.12082064E+03  EK= 0.11268E+01 SP= 0.13E+01 SK= 0.57E-03
     81 T=   248. E= -.11838744E+03 F= -.12083938E+03 E0= -.12083938E+03  EK= 0.11532E+01 SP= 0.13E+01 SK= 0.23E-02
     82 T=   255. E= -.11838741E+03 F= -.12086137E+03 E0= -.12086137E+03  EK= 0.11882E+01 SP= 0.13E+01 SK= 0.48E-02
     83 T=   265. E= -.11838738E+03 F= -.12088647E+03 E0= -.12088647E+03  EK= 0.12310E+01 SP= 0.13E+01 SK= 0.76E-02
     84 T=   275. E= -.11838736E+03 F= -.12091443E+03 E0= -.12091443E+03  EK= 0.12811E+01 SP= 0.12E+01 SK= 0.10E-01
     85 T=   287. E= -.11838736E+03 F= -.12094488E+03 E0= -.12094488E+03  EK= 0.13372E+01 SP= 0.12E+01 SK= 0.12E-01
     86 T=   300. E= -.11838739E+03 F= -.12097734E+03 E0= -.12097734E+03  EK= 0.13978E+01 SP= 0.12E+01 SK= 0.12E-01
 bond charge predicted
       N       E                     dE             d eps       ncg     rms          rms(c)
DAV:   1    -0.121618287151E+03   -0.52613E+00   -0.14328E+01   384   0.572E+00
DAV:   2    -0.121652327639E+03   -0.34040E-01   -0.34040E-01   384   0.115E+00
DAV:   3    -0.121652626660E+03   -0.29902E-03   -0.29902E-03   512   0.101E-01
DAV:   4    -0.121652628557E+03   -0.18978E-05   -0.18977E-05   384   0.593E-03    0.117E+00
DAV:   5    -0.121572212276E+03    0.80416E-01   -0.23360E+00   384   0.127E+00    0.696E-01
DAV:   6    -0.121527483526E+03    0.44729E-01   -0.57540E-01   512   0.642E-01    0.303E-01
DAV:   7    -0.121525931662E+03    0.15519E-02   -0.88594E-02   512   0.280E-01    0.211E-01
DAV:   8    -0.121523957675E+03    0.19740E-02   -0.24434E-02   512   0.152E-01    0.954E-02
DAV:   9    -0.121524068509E+03   -0.11083E-03   -0.95997E-04   384   0.518E-02    0.420E-02
DAV:  10    -0.121524123846E+03   -0.55337E-04   -0.59479E-05   512   0.125E-02    0.166E-02
DAV:  11    -0.121524166450E+03   -0.42604E-04   -0.15216E-05   512   0.503E-03    0.619E-03
DAV:  12    -0.121524205018E+03   -0.38568E-04   -0.41726E-06   512   0.238E-03    0.290E-03
DAV:  13    -0.121524248508E+03   -0.43490E-04   -0.44123E-06   512   0.181E-03    0.145E-03
DAV:  14    -0.121524294634E+03   -0.46126E-04   -0.61148E-06   512   0.183E-03    0.110E-03
DAV:  15    -0.121524329977E+03   -0.35343E-04   -0.63034E-06   512   0.162E-03    0.623E-04
DAV:  16    -0.121524342812E+03   -0.12835E-04   -0.19505E-06   512   0.821E-04    0.282E-04
DAV:  17    -0.121524345882E+03   -0.30698E-05   -0.31368E-07   512   0.330E-04
     87 T=   317. E= -.11888853E+03 F= -.12152435E+03 E0= -.12145246E+03  EK= 0.14731E+01 SP= 0.12E+01 SK= 0.12E-01
     88 T=   333. E= -.11836310E+03 F= -.12104504E+03 E0= -.12104504E+03  EK= 0.15483E+01 SP= 0.11E+01 SK= 0.93E-02
     89 T=   346. E= -.11836321E+03 F= -.12107885E+03 E0= -.12107885E+03  EK= 0.16081E+01 SP= 0.11E+01 SK= 0.62E-02
     90 T=   357. E= -.11836332E+03 F= -.12111197E+03 E0= -.12111197E+03  EK= 0.16619E+01 SP= 0.11E+01 SK= 0.32E-02
     91 T=   367. E= -.11836342E+03 F= -.12114371E+03 E0= -.12114371E+03  EK= 0.17070E+01 SP= 0.11E+01 SK= 0.83E-03
     92 T=   374. E= -.11836350E+03 F= -.12117343E+03 E0= -.12117343E+03  EK= 0.17410E+01 SP= 0.11E+01 SK= 0.56E-05
     93 T=   379. E= -.11836354E+03 F= -.12120057E+03 E0= -.12120057E+03  EK= 0.17617E+01 SP= 0.11E+01 SK= 0.13E-02
     94 T=   380. E= -.11836354E+03 F= -.12122468E+03 E0= -.12122468E+03  EK= 0.17680E+01 SP= 0.11E+01 SK= 0.51E-02
     95 T=   378. E= -.11836349E+03 F= -.12124545E+03 E0= -.12124545E+03  EK= 0.17593E+01 SP= 0.11E+01 SK= 0.11E-01
     96 T=   373. E= -.11836339E+03 F= -.12126272E+03 E0= -.12126272E+03  EK= 0.17362E+01 SP= 0.11E+01 SK= 0.19E-01
     97 T=   365. E= -.11836327E+03 F= -.12127648E+03 E0= -.12127648E+03  EK= 0.16999E+01 SP= 0.12E+01 SK= 0.29E-01
     98 T=   355. E= -.11836314E+03 F= -.12128687E+03 E0= -.12128687E+03  EK= 0.16525E+01 SP= 0.12E+01 SK= 0.39E-01
     99 T=   343. E= -.11836301E+03 F= -.12129407E+03 E0= -.12129407E+03  EK= 0.15963E+01 SP= 0.13E+01 SK= 0.48E-01
    100 T=   330. E= -.11836289E+03 F= -.12129837E+03 E0= -.12129837E+03  EK= 0.15339E+01 SP= 0.13E+01 SK= 0.55E-01
    101 T=   315. E= -.11836281E+03 F= -.12130012E+03 E0= -.12130012E+03  EK= 0.14681E+01 SP= 0.14E+01 SK= 0.60E-01
    102 T=   301. E= -.11836276E+03 F= -.12129969E+03 E0= -.12129969E+03  EK= 0.14012E+01 SP= 0.15E+01 SK= 0.62E-01
    103 T=   287. E= -.11836274E+03 F= -.12129748E+03 E0= -.12129748E+03  EK= 0.13354E+01 SP= 0.15E+01 SK= 0.60E-01
    104 T=   273. E= -.11836275E+03 F= -.12129383E+03 E0= -.12129383E+03  EK= 0.12726E+01 SP= 0.16E+01 SK= 0.56E-01
    105 T=   261. E= -.11836279E+03 F= -.12128907E+03 E0= -.12128907E+03  EK= 0.12141E+01 SP= 0.17E+01 SK= 0.50E-01
    106 T=   250. E= -.11836284E+03 F= -.12128350E+03 E0= -.12128350E+03  EK= 0.11610E+01 SP= 0.17E+01 SK= 0.41E-01
    107 T=   239. E= -.11836289E+03 F= -.12127737E+03 E0= -.12127737E+03  EK= 0.11141E+01 SP= 0.18E+01 SK= 0.32E-01
    108 T=   231. E= -.11836295E+03 F= -.12127088E+03 E0= -.12127088E+03  EK= 0.10738E+01 SP= 0.18E+01 SK= 0.23E-01
    109 T=   224. E= -.11836301E+03 F= -.12126422E+03 E0= -.12126422E+03  EK= 0.10404E+01 SP= 0.18E+01 SK= 0.14E-01
    110 T=   218. E= -.11836306E+03 F= -.12125750E+03 E0= -.12125750E+03  EK= 0.10143E+01 SP= 0.19E+01 SK= 0.69E-02
    111 T=   214. E= -.11836309E+03 F= -.12125083E+03 E0= -.12125083E+03  EK= 0.99532E+00 SP= 0.19E+01 SK= 0.22E-02
    112 T=   211. E= -.11836311E+03 F= -.12124427E+03 E0= -.12124427E+03  EK= 0.98369E+00 SP= 0.19E+01 SK= 0.64E-04
    113 T=   210. E= -.11836312E+03 F= -.12123785E+03 E0= -.12123785E+03  EK= 0.97938E+00 SP= 0.19E+01 SK= 0.97E-03
    114 T=   211. E= -.11836311E+03 F= -.12123156E+03 E0= -.12123156E+03  EK= 0.98243E+00 SP= 0.19E+01 SK= 0.49E-02
    115 T=   213. E= -.11836308E+03 F= -.12122537E+03 E0= -.12122537E+03  EK= 0.99286E+00 SP= 0.19E+01 SK= 0.12E-01
    116 T=   217. E= -.11836303E+03 F= -.12121922E+03 E0= -.12121922E+03  EK= 0.10107E+01 SP= 0.18E+01 SK= 0.21E-01
    117 T=   223. E= -.11836298E+03 F= -.12121301E+03 E0= -.12121301E+03  EK= 0.10360E+01 SP= 0.18E+01 SK= 0.33E-01
    118 T=   230. E= -.11836291E+03 F= -.12120662E+03 E0= -.12120662E+03  EK= 0.10686E+01 SP= 0.17E+01 SK= 0.46E-01
    119 T=   238. E= -.11836284E+03 F= -.12119990E+03 E0= -.12119990E+03  EK= 0.11086E+01 SP= 0.17E+01 SK= 0.59E-01
    120 T=   248. E= -.11836276E+03 F= -.12119266E+03 E0= -.12119266E+03  EK= 0.11557E+01 SP= 0.16E+01 SK= 0.72E-01
    121 T=   260. E= -.11836270E+03 F= -.12118470E+03 E0= -.12118470E+03  EK= 0.12095E+01 SP= 0.15E+01 SK= 0.83E-01
    122 T=   273. E= -.11836265E+03 F= -.12117577E+03 E0= -.12117577E+03  EK= 0.12693E+01 SP= 0.15E+01 SK= 0.91E-01
    123 T=   287. E= -.11836262E+03 F= -.12116559E+03 E0= -.12116559E+03  EK= 0.13342E+01 SP= 0.14E+01 SK= 0.97E-01
    124 T=   301. E= -.11836263E+03 F= -.12115387E+03 E0= -.12115387E+03  EK= 0.14029E+01 SP= 0.13E+01 SK= 0.99E-01
    125 T=   317. E= -.11836267E+03 F= -.12114028E+03 E0= -.12114028E+03  EK= 0.14737E+01 SP= 0.12E+01 SK= 0.96E-01
    126 T=   332. E= -.11836275E+03 F= -.12112451E+03 E0= -.12112451E+03  EK= 0.15443E+01 SP= 0.11E+01 SK= 0.90E-01
    127 T=   346. E= -.11836287E+03 F= -.12110624E+03 E0= -.12110624E+03  EK= 0.16122E+01 SP= 0.11E+01 SK= 0.79E-01
    128 T=   360. E= -.11836302E+03 F= -.12108521E+03 E0= -.12108521E+03  EK= 0.16746E+01 SP= 0.98E+00 SK= 0.67E-01
    129 T=   371. E= -.11836318E+03 F= -.12106123E+03 E0= -.12106123E+03  EK= 0.17287E+01 SP= 0.92E+00 SK= 0.53E-01
    130 T=   381. E= -.11836333E+03 F= -.12103418E+03 E0= -.12103418E+03  EK= 0.17716E+01 SP= 0.86E+00 SK= 0.38E-01
    131 T=   387. E= -.11836346E+03 F= -.12100404E+03 E0= -.12100404E+03  EK= 0.18010E+01 SP= 0.81E+00 SK= 0.25E-01
    132 T=   390. E= -.11836354E+03 F= -.12097093E+03 E0= -.12097093E+03  EK= 0.18152E+01 SP= 0.78E+00 SK= 0.14E-01
    133 T=   390. E= -.11836358E+03 F= -.12093505E+03 E0= -.12093505E+03  EK= 0.18134E+01 SP= 0.75E+00 SK= 0.64E-02
 bond charge predicted
       N       E                     dE             d eps       ncg     rms          rms(c)
DAV:   1    -0.122688220992E+03   -0.11639E+01   -0.23376E+02   256   0.237E+01
DAV:   2    -0.123223585076E+03   -0.53536E+00   -0.53536E+00   512   0.451E+00
DAV:   3    -0.123224677089E+03   -0.10920E-02   -0.10920E-02   384   0.196E-01
DAV:   4    -0.123224709272E+03   -0.32182E-04   -0.32182E-04   512   0.246E-02    0.441E+00
DAV:   5    -0.121968880056E+03    0.12558E+01   -0.15833E+01   256   0.335E+00    0.211E+00
DAV:   6    -0.121764150084E+03    0.20473E+00   -0.37202E+00   512   0.158E+00    0.117E+00
DAV:   7    -0.121735011823E+03    0.29138E-01   -0.78378E-01   384   0.823E-01    0.700E-01
DAV:   8    -0.121722687041E+03    0.12325E-01   -0.33565E-01   512   0.547E-01    0.429E-01
DAV:   9    -0.121720849880E+03    0.18372E-02   -0.46203E-02   384   0.238E-01    0.179E-01
DAV:  10    -0.121721269017E+03   -0.41914E-03   -0.25767E-03   384   0.861E-02    0.708E-02
DAV:  11    -0.121721418184E+03   -0.14917E-03   -0.42221E-04   512   0.250E-02    0.426E-02
DAV:  12    -0.121721528249E+03   -0.11007E-03   -0.42469E-05   512   0.975E-03    0.225E-02
DAV:  13    -0.121721641192E+03   -0.11294E-03   -0.34124E-05   256   0.624E-03    0.592E-03
DAV:  14    -0.121721706458E+03   -0.65266E-04   -0.74424E-06   512   0.310E-03    0.317E-03
DAV:  15    -0.121721783053E+03   -0.76595E-04   -0.10784E-05   256   0.293E-03    0.207E-03
DAV:  16    -0.121721840960E+03   -0.57908E-04   -0.86343E-06   384   0.232E-03    0.151E-03
DAV:  17    -0.121721877887E+03   -0.36927E-04   -0.63653E-06   256   0.178E-03    0.779E-04
DAV:  18    -0.121721890498E+03   -0.12611E-04   -0.16845E-06   512   0.871E-04    0.446E-04
DAV:  19    -0.121721895634E+03   -0.51358E-05   -0.74437E-07   384   0.553E-04
    134 T=   383. E= -.11920225E+03 F= -.12172190E+03 E0= -.12163978E+03  EK= 0.17821E+01 SP= 0.74E+00 SK= 0.17E-02
    135 T=   373. E= -.11838985E+03 F= -.12085553E+03 E0= -.12085553E+03  EK= 0.17361E+01 SP= 0.73E+00 SK= 0.50E-04
    136 T=   363. E= -.11838976E+03 F= -.12081300E+03 E0= -.12081300E+03  EK= 0.16910E+01 SP= 0.73E+00 SK= 0.53E-03
    137 T=   352. E= -.11838965E+03 F= -.12076987E+03 E0= -.12076987E+03  EK= 0.16368E+01 SP= 0.74E+00 SK= 0.24E-02
    138 T=   339. E= -.11838954E+03 F= -.12072690E+03 E0= -.12072690E+03  EK= 0.15762E+01 SP= 0.76E+00 SK= 0.47E-02
    139 T=   325. E= -.11838944E+03 F= -.12068489E+03 E0= -.12068489E+03  EK= 0.15123E+01 SP= 0.78E+00 SK= 0.68E-02
    140 T=   311. E= -.11838937E+03 F= -.12064463E+03 E0= -.12064463E+03  EK= 0.14480E+01 SP= 0.80E+00 SK= 0.82E-02
    141 T=   298. E= -.11838932E+03 F= -.12060689E+03 E0= -.12060689E+03  EK= 0.13859E+01 SP= 0.82E+00 SK= 0.86E-02
    142 T=   285. E= -.11838930E+03 F= -.12057240E+03 E0= -.12057240E+03  EK= 0.13283E+01 SP= 0.85E+00 SK= 0.79E-02
    143 T=   274. E= -.11838929E+03 F= -.12054182E+03 E0= -.12054182E+03  EK= 0.12771E+01 SP= 0.87E+00 SK= 0.64E-02
 bond charge predicted
       N       E                     dE             d eps       ncg     rms          rms(c)
DAV:   1    -0.121139455755E+03    0.58243E+00   -0.15773E+01   256   0.626E+00
DAV:   2    -0.121183101312E+03   -0.43646E-01   -0.43646E-01   512   0.128E+00
DAV:   3    -0.121183176872E+03   -0.75560E-04   -0.75560E-04   256   0.545E-02
DAV:   4    -0.121183184373E+03   -0.75013E-05   -0.75014E-05   512   0.132E-02    0.118E+00
DAV:   5    -0.121102692126E+03    0.80492E-01   -0.13278E+00   512   0.102E+00    0.602E-01
DAV:   6    -0.121082398499E+03    0.20294E-01   -0.47995E-01   384   0.592E-01    0.367E-01
DAV:   7    -0.121076531570E+03    0.58669E-02   -0.12806E-01   384   0.327E-01    0.228E-01
DAV:   8    -0.121074916606E+03    0.16150E-02   -0.24198E-02   256   0.150E-01    0.105E-01
DAV:   9    -0.121075019649E+03   -0.10304E-03   -0.15120E-03   256   0.581E-02    0.471E-02
DAV:  10    -0.121075059961E+03   -0.40312E-04   -0.13711E-04   512   0.189E-02    0.211E-02
DAV:  11    -0.121075076966E+03   -0.17004E-04   -0.13682E-05   384   0.512E-03    0.102E-02
DAV:  12    -0.121075093866E+03   -0.16900E-04   -0.40603E-06   512   0.264E-03    0.299E-03
DAV:  13    -0.121075101771E+03   -0.79054E-05   -0.65943E-07   512   0.918E-04
    144 T=   262. E= -.11896269E+03 F= -.12107510E+03 E0= -.12099040E+03  EK= 0.12196E+01 SP= 0.89E+00 SK= 0.45E-02
    145 T=   251. E= -.11894342E+03 F= -.12101573E+03 E0= -.12101573E+03  EK= 0.11668E+01 SP= 0.90E+00 SK= 0.22E-02
    146 T=   244. E= -.11894344E+03 F= -.12099043E+03 E0= -.12099043E+03  EK= 0.11338E+01 SP= 0.91E+00 SK= 0.57E-03
    147 T=   239. E= -.11894345E+03 F= -.12097130E+03 E0= -.12097130E+03  EK= 0.11123E+01 SP= 0.92E+00 SK= 0.36E-05
    148 T=   237. E= -.11894345E+03 F= -.12095860E+03 E0= -.12095860E+03  EK= 0.11029E+01 SP= 0.91E+00 SK= 0.85E-03
    149 T=   238. E= -.11894343E+03 F= -.12095246E+03 E0= -.12095246E+03  EK= 0.11057E+01 SP= 0.90E+00 SK= 0.32E-02
    150 T=   241. E= -.11894341E+03 F= -.12095296E+03 E0= -.12095296E+03  EK= 0.11208E+01 SP= 0.88E+00 SK= 0.70E-02
    151 T=   247. E= -.11894337E+03 F= -.12095999E+03 E0= -.12095999E+03  EK= 0.11483E+01 SP= 0.86E+00 SK= 0.12E-01
    152 T=   255. E= -.11894333E+03 F= -.12097337E+03 E0= -.12097337E+03  EK= 0.11879E+01 SP= 0.83E+00 SK= 0.17E-01
    153 T=   266. E= -.11894330E+03 F= -.12099274E+03 E0= -.12099274E+03  EK= 0.12388E+01 SP= 0.79E+00 SK= 0.22E-01
    154 T=   279. E= -.11894329E+03 F= -.12101763E+03 E0= -.12101763E+03  EK= 0.13002E+01 SP= 0.75E+00 SK= 0.25E-01
    155 T=   295. E= -.11894330E+03 F= -.12104742E+03 E0= -.12104742E+03  EK= 0.13707E+01 SP= 0.71E+00 SK= 0.27E-01
    156 T=   311. E= -.11894336E+03 F= -.12108135E+03 E0= -.12108135E+03  EK= 0.14481E+01 SP= 0.66E+00 SK= 0.27E-01
    157 T=   329. E= -.11894347E+03 F= -.12111852E+03 E0= -.12111852E+03  EK= 0.15297E+01 SP= 0.62E+00 SK= 0.24E-01
    158 T=   346. E= -.11894362E+03 F= -.12115788E+03 E0= -.12115788E+03  EK= 0.16123E+01 SP= 0.58E+00 SK= 0.19E-01
    159 T=   364. E= -.11894381E+03 F= -.12119830E+03 E0= -.12119830E+03  EK= 0.16917E+01 SP= 0.55E+00 SK= 0.13E-01
    160 T=   379. E= -.11894402E+03 F= -.12123859E+03 E0= -.12123859E+03  EK= 0.17638E+01 SP= 0.52E+00 SK= 0.68E-02
    161 T=   392. E= -.11894422E+03 F= -.12127755E+03 E0= -.12127755E+03  EK= 0.18240E+01 SP= 0.51E+00 SK= 0.20E-02
    162 T=   402. E= -.11894437E+03 F= -.12131406E+03 E0= -.12131406E+03  EK= 0.18685E+01 SP= 0.50E+00 SK= 0.32E-05
    163 T=   407. E= -.11894447E+03 F= -.12134713E+03 E0= -.12134713E+03  EK= 0.18939E+01 SP= 0.51E+00 SK= 0.20E-02
    164 T=   408. E= -.11894446E+03 F= -.12137593E+03 E0= -.12137593E+03  EK= 0.18983E+01 SP= 0.52E+00 SK= 0.85E-02
    165 T=   404. E= -.11894438E+03 F= -.12139988E+03 E0= -.12139988E+03  EK= 0.18812E+01 SP= 0.56E+00 SK= 0.19E-01
    166 T=   396. E= -.11894421E+03 F= -.12141866E+03 E0= -.12141866E+03  EK= 0.18435E+01 SP= 0.60E+00 SK= 0.34E-01
    167 T=   384. E= -.11894398E+03 F= -.12143224E+03 E0= -.12143224E+03  EK= 0.17878E+01 SP= 0.65E+00 SK= 0.50E-01
    168 T=   369. E= -.11894375E+03 F= -.12144090E+03 E0= -.12144090E+03  EK= 0.17173E+01 SP= 0.71E+00 SK= 0.66E-01
    169 T=   352. E= -.11894353E+03 F= -.12144513E+03 E0= -.12144513E+03  EK= 0.16364E+01 SP= 0.78E+00 SK= 0.81E-01
    170 T=   333. E= -.11894335E+03 F= -.12144558E+03 E0= -.12144558E+03  EK= 0.15491E+01 SP= 0.86E+00 SK= 0.92E-01
    171 T=   314. E= -.11894322E+03 F= -.12144302E+03 E0= -.12144302E+03  EK= 0.14595E+01 SP= 0.94E+00 SK= 0.98E-01
    172 T=   295. E= -.11894316E+03 F= -.12143830E+03 E0= -.12143830E+03  EK= 0.13714E+01 SP= 0.10E+01 SK= 0.99E-01
    173 T=   277. E= -.11894314E+03 F= -.12143228E+03 E0= -.12143228E+03  EK= 0.12875E+01 SP= 0.11E+01 SK= 0.95E-01
    174 T=   260. E= -.11894317E+03 F= -.12142583E+03 E0= -.12142583E+03  EK= 0.12103E+01 SP= 0.12E+01 SK= 0.87E-01
    175 T=   245. E= -.11894323E+03 F= -.12141974E+03 E0= -.12141974E+03  EK= 0.11414E+01 SP= 0.13E+01 SK= 0.75E-01
    176 T=   233. E= -.11894330E+03 F= -.12141474E+03 E0= -.12141474E+03  EK= 0.10820E+01 SP= 0.13E+01 SK= 0.61E-01
    177 T=   222. E= -.11894338E+03 F= -.12141151E+03 E0= -.12141151E+03  EK= 0.10329E+01 SP= 0.14E+01 SK= 0.46E-01
    178 T=   214. E= -.11894345E+03 F= -.12141061E+03 E0= -.12141061E+03  EK= 0.99445E+00 SP= 0.14E+01 SK= 0.32E-01
    179 T=   208. E= -.11894350E+03 F= -.12141257E+03 E0= -.12141257E+03  EK= 0.96706E+00 SP= 0.15E+01 SK= 0.19E-01
    180 T=   204. E= -.11894354E+03 F= -.12141778E+03 E0= -.12141778E+03  EK= 0.95083E+00 SP= 0.15E+01 SK= 0.97E-02
    181 T=   203. E= -.11894355E+03 F= -.12142659E+03 E0= -.12142659E+03  EK= 0.94590E+00 SP= 0.15E+01 SK= 0.31E-02
    182 T=   205. E= -.11894353E+03 F= -.12143927E+03 E0= -.12143927E+03  EK= 0.95238E+00 SP= 0.15E+01 SK= 0.19E-03
    183 T=   209. E= -.11894349E+03 F= -.12145601E+03 E0= -.12145601E+03  EK= 0.97036E+00 SP= 0.15E+01 SK= 0.74E-03
    184 T=   215. E= -.11894343E+03 F= -.12147693E+03 E0= -.12147693E+03  EK= 0.99995E+00 SP= 0.15E+01 SK= 0.44E-02
    185 T=   224. E= -.11894335E+03 F= -.12150206E+03 E0= -.12150206E+03  EK= 0.10412E+01 SP= 0.15E+01 SK= 0.10E-01
    186 T=   235. E= -.11894326E+03 F= -.12153137E+03 E0= -.12153137E+03  EK= 0.10940E+01 SP= 0.15E+01 SK= 0.18E-01
    187 T=   249. E= -.11894317E+03 F= -.12156475E+03 E0= -.12156475E+03  EK= 0.11582E+01 SP= 0.14E+01 SK= 0.25E-01
    188 T=   265. E= -.11894310E+03 F= -.12160204E+03 E0= -.12160204E+03  EK= 0.12332E+01 SP= 0.14E+01 SK= 0.31E-01
    189 T=   283. E= -.11894305E+03 F= -.12164294E+03 E0= -.12164294E+03  EK= 0.13179E+01 SP= 0.13E+01 SK= 0.35E-01
    190 T=   303. E= -.11894305E+03 F= -.12168707E+03 E0= -.12168707E+03  EK= 0.14107E+01 SP= 0.13E+01 SK= 0.37E-01
    191 T=   324. E= -.11894311E+03 F= -.12173390E+03 E0= -.12173390E+03  EK= 0.15092E+01 SP= 0.12E+01 SK= 0.34E-01
    192 T=   346. E= -.11894323E+03 F= -.12178286E+03 E0= -.12178286E+03  EK= 0.16102E+01 SP= 0.12E+01 SK= 0.29E-01
    193 T=   367. E= -.11894342E+03 F= -.12183324E+03 E0= -.12183324E+03  EK= 0.17096E+01 SP= 0.12E+01 SK= 0.21E-01
    194 T=   387. E= -.11894364E+03 F= -.12188426E+03 E0= -.12188426E+03  EK= 0.18027E+01 SP= 0.11E+01 SK= 0.12E-01
    195 T=   405. E= -.11894388E+03 F= -.12193508E+03 E0= -.12193508E+03  EK= 0.18844E+01 SP= 0.11E+01 SK= 0.47E-02
    196 T=   419. E= -.11894409E+03 F= -.12198485E+03 E0= -.12198485E+03  EK= 0.19497E+01 SP= 0.11E+01 SK= 0.35E-03
    197 T=   429. E= -.11894423E+03 F= -.12203276E+03 E0= -.12203276E+03  EK= 0.19943E+01 SP= 0.11E+01 SK= 0.13E-02
    198 T=   433. E= -.11894427E+03 F= -.12207810E+03 E0= -.12207810E+03  EK= 0.20150E+01 SP= 0.11E+01 SK= 0.88E-02
    199 T=   432. E= -.11894419E+03 F= -.12212025E+03 E0= -.12212025E+03  EK= 0.20105E+01 SP= 0.11E+01 SK= 0.23E-01
    200 T=   426. E= -.11894400E+03 F= -.12215873E+03 E0= -.12215873E+03  EK= 0.19811E+01 SP= 0.12E+01 SK= 0.44E-01
    201 T=   415. E= -.11894373E+03 F= -.12219328E+03 E0= -.12219328E+03  EK= 0.19289E+01 SP= 0.13E+01 SK= 0.69E-01
    202 T=   399. E= -.11894342E+03 F= -.12222378E+03 E0= -.12222378E+03  EK= 0.18576E+01 SP= 0.13E+01 SK= 0.96E-01
    203 T=   381. E= -.11894313E+03 F= -.12225030E+03 E0= -.12225030E+03  EK= 0.17717E+01 SP= 0.14E+01 SK= 0.12E+00
    204 T=   360. E= -.11894289E+03 F= -.12227302E+03 E0= -.12227302E+03  EK= 0.16762E+01 SP= 0.15E+01 SK= 0.14E+00
    205 T=   339. E= -.11894271E+03 F= -.12229223E+03 E0= -.12229223E+03  EK= 0.15758E+01 SP= 0.16E+01 SK= 0.16E+00
    206 T=   317. E= -.11894262E+03 F= -.12230829E+03 E0= -.12230829E+03  EK= 0.14748E+01 SP= 0.17E+01 SK= 0.17E+00
    207 T=   296. E= -.11894260E+03 F= -.12232164E+03 E0= -.12232164E+03  EK= 0.13767E+01 SP= 0.18E+01 SK= 0.17E+00
    208 T=   276. E= -.11894264E+03 F= -.12233273E+03 E0= -.12233273E+03  EK= 0.12842E+01 SP= 0.19E+01 SK= 0.17E+00
    209 T=   258. E= -.11894273E+03 F= -.12234202E+03 E0= -.12234202E+03  EK= 0.11993E+01 SP= 0.20E+01 SK= 0.16E+00
    210 T=   241. E= -.11894286E+03 F= -.12234994E+03 E0= -.12234994E+03  EK= 0.11230E+01 SP= 0.21E+01 SK= 0.14E+00
    211 T=   227. E= -.11894299E+03 F= -.12235687E+03 E0= -.12235687E+03  EK= 0.10563E+01 SP= 0.22E+01 SK= 0.12E+00
    212 T=   215. E= -.11894312E+03 F= -.12236318E+03 E0= -.12236318E+03  EK= 0.99921E+00 SP= 0.23E+01 SK= 0.96E-01
    213 T=   205. E= -.11894325E+03 F= -.12236920E+03 E0= -.12236920E+03  EK= 0.95190E+00 SP= 0.24E+01 SK= 0.73E-01
    214 T=   196. E= -.11894336E+03 F= -.12237520E+03 E0= -.12237520E+03  EK= 0.91421E+00 SP= 0.25E+01 SK= 0.52E-01
    215 T=   190. E= -.11894345E+03 F= -.12238141E+03 E0= -.12238141E+03  EK= 0.88593E+00 SP= 0.25E+01 SK= 0.32E-01
    216 T=   186. E= -.11894351E+03 F= -.12238802E+03 E0= -.12238802E+03  EK= 0.86686E+00 SP= 0.26E+01 SK= 0.17E-01
    217 T=   184. E= -.11894355E+03 F= -.12239519E+03 E0= -.12239519E+03  EK= 0.85685E+00 SP= 0.26E+01 SK= 0.65E-02
    218 T=   184. E= -.11894356E+03 F= -.12240304E+03 E0= -.12240304E+03  EK= 0.85579E+00 SP= 0.26E+01 SK= 0.90E-03
    219 T=   186. E= -.11894354E+03 F= -.12241167E+03 E0= -.12241167E+03  EK= 0.86368E+00 SP= 0.26E+01 SK= 0.42E-03
    220 T=   189. E= -.11894350E+03 F= -.12242112E+03 E0= -.12242112E+03  EK= 0.88058E+00 SP= 0.26E+01 SK= 0.49E-02
    221 T=   195. E= -.11894343E+03 F= -.12243142E+03 E0= -.12243142E+03  EK= 0.90667E+00 SP= 0.26E+01 SK= 0.14E-01
    222 T=   202. E= -.11894333E+03 F= -.12244255E+03 E0= -.12244255E+03  EK= 0.94211E+00 SP= 0.25E+01 SK= 0.26E-01
    223 T=   212. E= -.11894322E+03 F= -.12245445E+03 E0= -.12245445E+03  EK= 0.98712E+00 SP= 0.25E+01 SK= 0.41E-01
    224 T=   224. E= -.11894310E+03 F= -.12246704E+03 E0= -.12246704E+03  EK= 0.10418E+01 SP= 0.24E+01 SK= 0.57E-01
    225 T=   238. E= -.11894298E+03 F= -.12248017E+03 E0= -.12248017E+03  EK= 0.11063E+01 SP= 0.24E+01 SK= 0.72E-01
    226 T=   254. E= -.11894287E+03 F= -.12249367E+03 E0= -.12249367E+03  EK= 0.11802E+01 SP= 0.23E+01 SK= 0.86E-01
    227 T=   271. E= -.11894278E+03 F= -.12250728E+03 E0= -.12250728E+03  EK= 0.12630E+01 SP= 0.22E+01 SK= 0.96E-01
    228 T=   291. E= -.11894273E+03 F= -.12252071E+03 E0= -.12252071E+03  EK= 0.13536E+01 SP= 0.21E+01 SK= 0.10E+00
    229 T=   312. E= -.11894274E+03 F= -.12253363E+03 E0= -.12253363E+03  EK= 0.14502E+01 SP= 0.20E+01 SK= 0.10E+00
    230 T=   333. E= -.11894282E+03 F= -.12254564E+03 E0= -.12254564E+03  EK= 0.15503E+01 SP= 0.20E+01 SK= 0.95E-01
    231 T=   355. E= -.11894297E+03 F= -.12255634E+03 E0= -.12255634E+03  EK= 0.16505E+01 SP= 0.19E+01 SK= 0.83E-01
    232 T=   375. E= -.11894318E+03 F= -.12256530E+03 E0= -.12256530E+03  EK= 0.17468E+01 SP= 0.18E+01 SK= 0.67E-01
    233 T=   394. E= -.11894344E+03 F= -.12257214E+03 E0= -.12257214E+03  EK= 0.18346E+01 SP= 0.17E+01 SK= 0.49E-01
    234 T=   410. E= -.11894370E+03 F= -.12257646E+03 E0= -.12257646E+03  EK= 0.19090E+01 SP= 0.17E+01 SK= 0.31E-01
    235 T=   422. E= -.11894393E+03 F= -.12257800E+03 E0= -.12257800E+03  EK= 0.19656E+01 SP= 0.17E+01 SK= 0.16E-01
    236 T=   430. E= -.11894409E+03 F= -.12257656E+03 E0= -.12257656E+03  EK= 0.20004E+01 SP= 0.16E+01 SK= 0.48E-02
    237 T=   432. E= -.11894414E+03 F= -.12257212E+03 E0= -.12257212E+03  EK= 0.20113E+01 SP= 0.16E+01 SK= 0.14E-03
    238 T=   429. E= -.11894408E+03 F= -.12256479E+03 E0= -.12256479E+03  EK= 0.19975E+01 SP= 0.16E+01 SK= 0.21E-02
    239 T=   421. E= -.11894392E+03 F= -.12255485E+03 E0= -.12255485E+03  EK= 0.19602E+01 SP= 0.16E+01 SK= 0.10E-01
    240 T=   409. E= -.11894369E+03 F= -.12254269E+03 E0= -.12254269E+03  EK= 0.19020E+01 SP= 0.17E+01 SK= 0.23E-01
    241 T=   393. E= -.11894343E+03 F= -.12252880E+03 E0= -.12252880E+03  EK= 0.18271E+01 SP= 0.17E+01 SK= 0.39E-01
    242 T=   374. E= -.11894318E+03 F= -.12251374E+03 E0= -.12251374E+03  EK= 0.17400E+01 SP= 0.18E+01 SK= 0.55E-01
    243 T=   354. E= -.11894298E+03 F= -.12249812E+03 E0= -.12249812E+03  EK= 0.16456E+01 SP= 0.18E+01 SK= 0.68E-01
    244 T=   333. E= -.11894283E+03 F= -.12248254E+03 E0= -.12248254E+03  EK= 0.15487E+01 SP= 0.19E+01 SK= 0.79E-01
    245 T=   312. E= -.11894275E+03 F= -.12246762E+03 E0= -.12246762E+03  EK= 0.14532E+01 SP= 0.20E+01 SK= 0.84E-01
    246 T=   293. E= -.11894274E+03 F= -.12245391E+03 E0= -.12245391E+03  EK= 0.13625E+01 SP= 0.21E+01 SK= 0.85E-01
    247 T=   275. E= -.11894278E+03 F= -.12244186E+03 E0= -.12244186E+03  EK= 0.12789E+01 SP= 0.21E+01 SK= 0.81E-01
    248 T=   259. E= -.11894286E+03 F= -.12243183E+03 E0= -.12243183E+03  EK= 0.12042E+01 SP= 0.22E+01 SK= 0.73E-01
    249 T=   245. E= -.11894296E+03 F= -.12242413E+03 E0= -.12242413E+03  EK= 0.11393E+01 SP= 0.23E+01 SK= 0.62E-01
    250 T=   233. E= -.11894306E+03 F= -.12241896E+03 E0= -.12241896E+03  EK= 0.10850E+01 SP= 0.23E+01 SK= 0.49E-01
    251 T=   224. E= -.11894316E+03 F= -.12241648E+03 E0= -.12241648E+03  EK= 0.10413E+01 SP= 0.24E+01 SK= 0.36E-01
    252 T=   217. E= -.11894325E+03 F= -.12241678E+03 E0= -.12241678E+03  EK= 0.10083E+01 SP= 0.24E+01 SK= 0.24E-01
    253 T=   212. E= -.11894332E+03 F= -.12241986E+03 E0= -.12241986E+03  EK= 0.98574E+00 SP= 0.25E+01 SK= 0.14E-01
    254 T=   209. E= -.11894337E+03 F= -.12242568E+03 E0= -.12242568E+03  EK= 0.97351E+00 SP= 0.25E+01 SK= 0.61E-02
    255 T=   209. E= -.11894339E+03 F= -.12243414E+03 E0= -.12243414E+03  EK= 0.97131E+00 SP= 0.25E+01 SK= 0.15E-02
    256 T=   210. E= -.11894340E+03 F= -.12244511E+03 E0= -.12244511E+03  EK= 0.97890E+00 SP= 0.25E+01 SK= 0.21E-05
    257 T=   214. E= -.11894338E+03 F= -.12245837E+03 E0= -.12245837E+03  EK= 0.99602E+00 SP= 0.25E+01 SK= 0.16E-02
    258 T=   220. E= -.11894335E+03 F= -.12247367E+03 E0= -.12247367E+03  EK= 0.10224E+01 SP= 0.25E+01 SK= 0.59E-02
    259 T=   227. E= -.11894331E+03 F= -.12249070E+03 E0= -.12249070E+03  EK= 0.10577E+01 SP= 0.25E+01 SK= 0.12E-01
    260 T=   237. E= -.11894326E+03 F= -.12250909E+03 E0= -.12250909E+03  EK= 0.11015E+01 SP= 0.24E+01 SK= 0.20E-01
    261 T=   248. E= -.11894321E+03 F= -.12252842E+03 E0= -.12252842E+03  EK= 0.11532E+01 SP= 0.24E+01 SK= 0.27E-01
    262 T=   260. E= -.11894317E+03 F= -.12254824E+03 E0= -.12254824E+03  EK= 0.12120E+01 SP= 0.24E+01 SK= 0.34E-01
    263 T=   274. E= -.11894316E+03 F= -.12256805E+03 E0= -.12256805E+03  EK= 0.12769E+01 SP= 0.23E+01 SK= 0.40E-01
    264 T=   289. E= -.11894317E+03 F= -.12258729E+03 E0= -.12258729E+03  EK= 0.13464E+01 SP= 0.23E+01 SK= 0.43E-01
    265 T=   305. E= -.11894321E+03 F= -.12260535E+03 E0= -.12260535E+03  EK= 0.14185E+01 SP= 0.22E+01 SK= 0.44E-01
    266 T=   320. E= -.11894328E+03 F= -.12262162E+03 E0= -.12262162E+03  EK= 0.14912E+01 SP= 0.21E+01 SK= 0.41E-01
    267 T=   336. E= -.11894339E+03 F= -.12263552E+03 E0= -.12263552E+03  EK= 0.15616E+01 SP= 0.21E+01 SK= 0.36E-01
    268 T=   350. E= -.11894352E+03 F= -.12264645E+03 E0= -.12264645E+03  EK= 0.16269E+01 SP= 0.20E+01 SK= 0.30E-01
    269 T=   362. E= -.11894366E+03 F= -.12265390E+03 E0= -.12265390E+03  EK= 0.16840E+01 SP= 0.20E+01 SK= 0.22E-01
    270 T=   372. E= -.11894379E+03 F= -.12265745E+03 E0= -.12265745E+03  EK= 0.17301E+01 SP= 0.20E+01 SK= 0.14E-01
    271 T=   379. E= -.11894389E+03 F= -.12265683E+03 E0= -.12265683E+03  EK= 0.17626E+01 SP= 0.19E+01 SK= 0.71E-02
    272 T=   382. E= -.11894395E+03 F= -.12265190E+03 E0= -.12265190E+03  EK= 0.17799E+01 SP= 0.19E+01 SK= 0.24E-02
    273 T=   383. E= -.11894395E+03 F= -.12264270E+03 E0= -.12264270E+03  EK= 0.17809E+01 SP= 0.19E+01 SK= 0.15E-03
    274 T=   379. E= -.11894391E+03 F= -.12262943E+03 E0= -.12262943E+03  EK= 0.17658E+01 SP= 0.19E+01 SK= 0.56E-03
    275 T=   373. E= -.11894382E+03 F= -.12261244E+03 E0= -.12261244E+03  EK= 0.17355E+01 SP= 0.19E+01 SK= 0.33E-02
    276 T=   364. E= -.11894370E+03 F= -.12259220E+03 E0= -.12259220E+03  EK= 0.16920E+01 SP= 0.19E+01 SK= 0.77E-02
    277 T=   352. E= -.11894357E+03 F= -.12256928E+03 E0= -.12256928E+03  EK= 0.16377E+01 SP= 0.20E+01 SK= 0.13E-01
    278 T=   339. E= -.11894344E+03 F= -.12254432E+03 E0= -.12254432E+03  EK= 0.15756E+01 SP= 0.20E+01 SK= 0.18E-01
    279 T=   324. E= -.11894334E+03 F= -.12251799E+03 E0= -.12251799E+03  EK= 0.15087E+01 SP= 0.20E+01 SK= 0.22E-01
    280 T=   309. E= -.11894326E+03 F= -.12249095E+03 E0= -.12249095E+03  EK= 0.14399E+01 SP= 0.21E+01 SK= 0.24E-01
    281 T=   295. E= -.11894322E+03 F= -.12246386E+03 E0= -.12246386E+03  EK= 0.13718E+01 SP= 0.21E+01 SK= 0.24E-01
    282 T=   281. E= -.11894321E+03 F= -.12243730E+03 E0= -.12243730E+03  EK= 0.13068E+01 SP= 0.22E+01 SK= 0.23E-01
    283 T=   268. E= -.11894322E+03 F= -.12241180E+03 E0= -.12241180E+03  EK= 0.12466E+01 SP= 0.22E+01 SK= 0.19E-01
    284 T=   256. E= -.11894325E+03 F= -.12238780E+03 E0= -.12238780E+03  EK= 0.11926E+01 SP= 0.22E+01 SK= 0.15E-01
    285 T=   246. E= -.11894329E+03 F= -.12236569E+03 E0= -.12236569E+03  EK= 0.11460E+01 SP= 0.23E+01 SK= 0.10E-01
    286 T=   238. E= -.11894333E+03 F= -.12234575E+03 E0= -.12234575E+03  EK= 0.11073E+01 SP= 0.23E+01 SK= 0.57E-02
    287 T=   231. E= -.11894337E+03 F= -.12232822E+03 E0= -.12232822E+03  EK= 0.10772E+01 SP= 0.23E+01 SK= 0.22E-02
    288 T=   227. E= -.11894340E+03 F= -.12231322E+03 E0= -.12231322E+03  EK= 0.10559E+01 SP= 0.23E+01 SK= 0.25E-03
    289 T=   224. E= -.11894342E+03 F= -.12230084E+03 E0= -.12230084E+03  EK= 0.10437E+01 SP= 0.23E+01 SK= 0.29E-03
    290 T=   224. E= -.11894342E+03 F= -.12229106E+03 E0= -.12229106E+03  EK= 0.10405E+01 SP= 0.23E+01 SK= 0.25E-02
    291 T=   225. E= -.11894341E+03 F= -.12228384E+03 E0= -.12228384E+03  EK= 0.10464E+01 SP= 0.23E+01 SK= 0.70E-02
    292 T=   228. E= -.11894338E+03 F= -.12227905E+03 E0= -.12227905E+03  EK= 0.10614E+01 SP= 0.23E+01 SK= 0.13E-01
    293 T=   233. E= -.11894335E+03 F= -.12227653E+03 E0= -.12227653E+03  EK= 0.10854E+01 SP= 0.22E+01 SK= 0.21E-01
    294 T=   240. E= -.11894330E+03 F= -.12227605E+03 E0= -.12227605E+03  EK= 0.11181E+01 SP= 0.22E+01 SK= 0.30E-01
    295 T=   249. E= -.11894325E+03 F= -.12227733E+03 E0= -.12227733E+03  EK= 0.11593E+01 SP= 0.21E+01 SK= 0.39E-01
    296 T=   260. E= -.11894321E+03 F= -.12228002E+03 E0= -.12228002E+03  EK= 0.12084E+01 SP= 0.21E+01 SK= 0.48E-01
    297 T=   272. E= -.11894318E+03 F= -.12228373E+03 E0= -.12228373E+03  EK= 0.12646E+01 SP= 0.20E+01 SK= 0.55E-01
    298 T=   285. E= -.11894317E+03 F= -.12228802E+03 E0= -.12228802E+03  EK= 0.13269E+01 SP= 0.20E+01 SK= 0.59E-01
    299 T=   300. E= -.11894320E+03 F= -.12229236E+03 E0= -.12229236E+03  EK= 0.13939E+01 SP= 0.19E+01 SK= 0.61E-01
    300 T=   314. E= -.11894325E+03 F= -.12229622E+03 E0= -.12229622E+03  EK= 0.14634E+01 SP= 0.18E+01 SK= 0.59E-01
    301 T=   330. E= -.11894334E+03 F= -.12229904E+03 E0= -.12229904E+03  EK= 0.15334E+01 SP= 0.18E+01 SK= 0.55E-01
    302 T=   344. E= -.11894347E+03 F= -.12230030E+03 E0= -.12230030E+03  EK= 0.16010E+01 SP= 0.17E+01 SK= 0.47E-01
    303 T=   357. E= -.11894361E+03 F= -.12229948E+03 E0= -.12229948E+03  EK= 0.16633E+01 SP= 0.17E+01 SK= 0.38E-01
    304 T=   369. E= -.11894376E+03 F= -.12229615E+03 E0= -.12229615E+03  EK= 0.17174E+01 SP= 0.16E+01 SK= 0.28E-01
    305 T=   378. E= -.11894390E+03 F= -.12228994E+03 E0= -.12228994E+03  EK= 0.17603E+01 SP= 0.16E+01 SK= 0.18E-01
    306 T=   385. E= -.11894401E+03 F= -.12228062E+03 E0= -.12228062E+03  EK= 0.17898E+01 SP= 0.15E+01 SK= 0.96E-02
    307 T=   388. E= -.11894407E+03 F= -.12226807E+03 E0= -.12226807E+03  EK= 0.18039E+01 SP= 0.15E+01 SK= 0.36E-02
    308 T=   387. E= -.11894408E+03 F= -.12225235E+03 E0= -.12225235E+03  EK= 0.18020E+01 SP= 0.15E+01 SK= 0.45E-03
    309 T=   383. E= -.11894403E+03 F= -.12223363E+03 E0= -.12223363E+03  EK= 0.17841E+01 SP= 0.15E+01 SK= 0.27E-03
    310 T=   376. E= -.11894393E+03 F= -.12221227E+03 E0= -.12221227E+03  EK= 0.17515E+01 SP= 0.15E+01 SK= 0.27E-02
    311 T=   367. E= -.11894381E+03 F= -.12218873E+03 E0= -.12218873E+03  EK= 0.17060E+01 SP= 0.15E+01 SK= 0.70E-02
    312 T=   355. E= -.11894367E+03 F= -.12216358E+03 E0= -.12216358E+03  EK= 0.16503E+01 SP= 0.16E+01 SK= 0.12E-01
    313 T=   341. E= -.11894354E+03 F= -.12213748E+03 E0= -.12213748E+03  EK= 0.15875E+01 SP= 0.16E+01 SK= 0.17E-01
    314 T=   327. E= -.11894343E+03 F= -.12211108E+03 E0= -.12211108E+03  EK= 0.15205E+01 SP= 0.16E+01 SK= 0.21E-01
    315 T=   312. E= -.11894335E+03 F= -.12208508E+03 E0= -.12208508E+03  EK= 0.14524E+01 SP= 0.17E+01 SK= 0.24E-01
    316 T=   298. E= -.11894330E+03 F= -.12206014E+03 E0= -.12206014E+03  EK= 0.13858E+01 SP= 0.17E+01 SK= 0.25E-01
    317 T=   284. E= -.11894328E+03 F= -.12203686E+03 E0= -.12203686E+03  EK= 0.13230E+01 SP= 0.17E+01 SK= 0.24E-01
    318 T=   272. E= -.11894329E+03 F= -.12201576E+03 E0= -.12201576E+03  EK= 0.12657E+01 SP= 0.18E+01 SK= 0.21E-01
    319 T=   261. E= -.11894331E+03 F= -.12199734E+03 E0= -.12199734E+03  EK= 0.12155E+01 SP= 0.18E+01 SK= 0.17E-01
    320 T=   252. E= -.11894333E+03 F= -.12198201E+03 E0= -.12198201E+03  EK= 0.11733E+01 SP= 0.19E+01 SK= 0.12E-01
    321 T=   245. E= -.11894336E+03 F= -.12197012E+03 E0= -.12197012E+03  EK= 0.11399E+01 SP= 0.19E+01 SK= 0.77E-02
    322 T=   240. E= -.11894339E+03 F= -.12196192E+03 E0= -.12196192E+03  EK= 0.11158E+01 SP= 0.19E+01 SK= 0.39E-02
    323 T=   237. E= -.11894341E+03 F= -.12195759E+03 E0= -.12195759E+03  EK= 0.11013E+01 SP= 0.19E+01 SK= 0.12E-02
    324 T=   236. E= -.11894341E+03 F= -.12195725E+03 E0= -.12195725E+03  EK= 0.10966E+01 SP= 0.19E+01 SK= 0.49E-04
    325 T=   237. E= -.11894340E+03 F= -.12196094E+03 E0= -.12196094E+03  EK= 0.11018E+01 SP= 0.19E+01 SK= 0.44E-03
    326 T=   240. E= -.11894338E+03 F= -.12196865E+03 E0= -.12196865E+03  EK= 0.11167E+01 SP= 0.19E+01 SK= 0.23E-02
    327 T=   245. E= -.11894336E+03 F= -.12198028E+03 E0= -.12198028E+03  EK= 0.11413E+01 SP= 0.19E+01 SK= 0.54E-02
    328 T=   253. E= -.11894332E+03 F= -.12199570E+03 E0= -.12199570E+03  EK= 0.11751E+01 SP= 0.19E+01 SK= 0.92E-02
    329 T=   262. E= -.11894329E+03 F= -.12201469E+03 E0= -.12201469E+03  EK= 0.12178E+01 SP= 0.18E+01 SK= 0.13E-01
    330 T=   273. E= -.11894327E+03 F= -.12203697E+03 E0= -.12203697E+03  EK= 0.12686E+01 SP= 0.18E+01 SK= 0.17E-01
    331 T=   285. E= -.11894326E+03 F= -.12206223E+03 E0= -.12206223E+03  EK= 0.13264E+01 SP= 0.18E+01 SK= 0.19E-01
    332 T=   299. E= -.11894327E+03 F= -.12209006E+03 E0= -.12209006E+03  EK= 0.13901E+01 SP= 0.17E+01 SK= 0.20E-01
    333 T=   313. E= -.11894332E+03 F= -.12212000E+03 E0= -.12212000E+03  EK= 0.14576E+01 SP= 0.17E+01 SK= 0.19E-01
    334 T=   328. E= -.11894339E+03 F= -.12215143E+03 E0= -.12215143E+03  EK= 0.15268E+01 SP= 0.17E+01 SK= 0.17E-01
    335 T=   343. E= -.11894349E+03 F= -.12218381E+03 E0= -.12218381E+03  EK= 0.15950E+01 SP= 0.16E+01 SK= 0.13E-01
    336 T=   357. E= -.11894361E+03 F= -.12221656E+03 E0= -.12221656E+03  EK= 0.16594E+01 SP= 0.16E+01 SK= 0.86E-02
    337 T=   369. E= -.11894373E+03 F= -.12224913E+03 E0= -.12224913E+03  EK= 0.17168E+01 SP= 0.16E+01 SK= 0.42E-02
    338 T=   379. E= -.11894384E+03 F= -.12228097E+03 E0= -.12228097E+03  EK= 0.17645E+01 SP= 0.16E+01 SK= 0.10E-02
    339 T=   387. E= -.11894393E+03 F= -.12231161E+03 E0= -.12231161E+03  EK= 0.17996E+01 SP= 0.16E+01 SK= 0.21E-04
    340 T=   391. E= -.11894396E+03 F= -.12234063E+03 E0= -.12234063E+03  EK= 0.18203E+01 SP= 0.16E+01 SK= 0.19E-02
    341 T=   392. E= -.11894395E+03 F= -.12236771E+03 E0= -.12236771E+03  EK= 0.18254E+01 SP= 0.16E+01 SK= 0.71E-02
    342 T=   390. E= -.11894388E+03 F= -.12239259E+03 E0= -.12239259E+03  EK= 0.18144E+01 SP= 0.16E+01 SK= 0.16E-01
    343 T=   384. E= -.11894377E+03 F= -.12241515E+03 E0= -.12241515E+03  EK= 0.17882E+01 SP= 0.17E+01 SK= 0.27E-01
    344 T=   376. E= -.11894362E+03 F= -.12243536E+03 E0= -.12243536E+03  EK= 0.17482E+01 SP= 0.17E+01 SK= 0.39E-01
    345 T=   365. E= -.11894347E+03 F= -.12245331E+03 E0= -.12245331E+03  EK= 0.16968E+01 SP= 0.18E+01 SK= 0.53E-01
    346 T=   352. E= -.11894332E+03 F= -.12246917E+03 E0= -.12246917E+03  EK= 0.16367E+01 SP= 0.18E+01 SK= 0.65E-01
    347 T=   338. E= -.11894319E+03 F= -.12248314E+03 E0= -.12248314E+03  EK= 0.15708E+01 SP= 0.19E+01 SK= 0.76E-01
    348 T=   323. E= -.11894310E+03 F= -.12249550E+03 E0= -.12249550E+03  EK= 0.15018E+01 SP= 0.20E+01 SK= 0.83E-01
    349 T=   308. E= -.11894305E+03 F= -.12250649E+03 E0= -.12250649E+03  EK= 0.14323E+01 SP= 0.20E+01 SK= 0.87E-01
    350 T=   293. E= -.11894303E+03 F= -.12251638E+03 E0= -.12251638E+03  EK= 0.13646E+01 SP= 0.21E+01 SK= 0.87E-01
    351 T=   279. E= -.11894304E+03 F= -.12252544E+03 E0= -.12252544E+03  EK= 0.13004E+01 SP= 0.22E+01 SK= 0.84E-01
    352 T=   267. E= -.11894308E+03 F= -.12253389E+03 E0= -.12253389E+03  EK= 0.12411E+01 SP= 0.23E+01 SK= 0.77E-01
    353 T=   255. E= -.11894314E+03 F= -.12254194E+03 E0= -.12254194E+03  EK= 0.11877E+01 SP= 0.23E+01 SK= 0.68E-01
    354 T=   245. E= -.11894321E+03 F= -.12254973E+03 E0= -.12254973E+03  EK= 0.11409E+01 SP= 0.24E+01 SK= 0.57E-01
    355 T=   237. E= -.11894328E+03 F= -.12255739E+03 E0= -.12255739E+03  EK= 0.11010E+01 SP= 0.25E+01 SK= 0.45E-01
    356 T=   230. E= -.11894335E+03 F= -.12256500E+03 E0= -.12256500E+03  EK= 0.10682E+01 SP= 0.25E+01 SK= 0.34E-01
    357 T=   224. E= -.11894340E+03 F= -.12257260E+03 E0= -.12257260E+03  EK= 0.10427E+01 SP= 0.26E+01 SK= 0.23E-01
    358 T=   220. E= -.11894345E+03 F= -.12258022E+03 E0= -.12258022E+03  EK= 0.10242E+01 SP= 0.26E+01 SK= 0.14E-01
    359 T=   218. E= -.11894348E+03 F= -.12258786E+03 E0= -.12258786E+03  EK= 0.10129E+01 SP= 0.26E+01 SK= 0.66E-02
    360 T=   217. E= -.11894351E+03 F= -.12259546E+03 E0= -.12259546E+03  EK= 0.10085E+01 SP= 0.26E+01 SK= 0.20E-02
    361 T=   217. E= -.11894351E+03 F= -.12260294E+03 E0= -.12260294E+03  EK= 0.10109E+01 SP= 0.26E+01 SK= 0.72E-04
    362 T=   219. E= -.11894350E+03 F= -.12261019E+03 E0= -.12261019E+03  EK= 0.10200E+01 SP= 0.26E+01 SK= 0.75E-03
    363 T=   223. E= -.11894349E+03 F= -.12261707E+03 E0= -.12261707E+03  EK= 0.10355E+01 SP= 0.26E+01 SK= 0.39E-02
    364 T=   227. E= -.11894346E+03 F= -.12262341E+03 E0= -.12262341E+03  EK= 0.10573E+01 SP= 0.26E+01 SK= 0.90E-02
    365 T=   233. E= -.11894342E+03 F= -.12262903E+03 E0= -.12262903E+03  EK= 0.10852E+01 SP= 0.26E+01 SK= 0.16E-01
    366 T=   240. E= -.11894338E+03 F= -.12263373E+03 E0= -.12263373E+03  EK= 0.11188E+01 SP= 0.25E+01 SK= 0.24E-01
    367 T=   249. E= -.11894334E+03 F= -.12263728E+03 E0= -.12263728E+03  EK= 0.11578E+01 SP= 0.25E+01 SK= 0.32E-01
    368 T=   258. E= -.11894331E+03 F= -.12263942E+03 E0= -.12263942E+03  EK= 0.12017E+01 SP= 0.25E+01 SK= 0.39E-01
    369 T=   269. E= -.11894328E+03 F= -.12263989E+03 E0= -.12263989E+03  EK= 0.12497E+01 SP= 0.24E+01 SK= 0.46E-01
    370 T=   280. E= -.11894327E+03 F= -.12263840E+03 E0= -.12263840E+03  EK= 0.13009E+01 SP= 0.23E+01 SK= 0.51E-01
    371 T=   291. E= -.11894327E+03 F= -.12263469E+03 E0= -.12263469E+03  EK= 0.13543E+01 SP= 0.23E+01 SK= 0.54E-01
    372 T=   303. E= -.11894330E+03 F= -.12262847E+03 E0= -.12262847E+03  EK= 0.14085E+01 SP= 0.22E+01 SK= 0.54E-01
    373 T=   314. E= -.11894335E+03 F= -.12261948E+03 E0= -.12261948E+03  EK= 0.14619E+01 SP= 0.22E+01 SK= 0.53E-01
    374 T=   325. E= -.11894341E+03 F= -.12260747E+03 E0= -.12260747E+03  EK= 0.15128E+01 SP= 0.21E+01 SK= 0.49E-01
    375 T=   335. E= -.11894349E+03 F= -.12259225E+03 E0= -.12259225E+03  EK= 0.15594E+01 SP= 0.20E+01 SK= 0.43E-01
    376 T=   344. E= -.11894358E+03 F= -.12257367E+03 E0= -.12257367E+03  EK= 0.15998E+01 SP= 0.20E+01 SK= 0.36E-01
    377 T=   351. E= -.11894366E+03 F= -.12255166E+03 E0= -.12255166E+03  EK= 0.16324E+01 SP= 0.19E+01 SK= 0.29E-01
    378 T=   356. E= -.11894374E+03 F= -.12252623E+03 E0= -.12252623E+03  EK= 0.16555E+01 SP= 0.19E+01 SK= 0.21E-01
    379 T=   359. E= -.11894379E+03 F= -.12249746E+03 E0= -.12249746E+03  EK= 0.16683E+01 SP= 0.19E+01 SK= 0.14E-01
    380 T=   359. E= -.11894382E+03 F= -.12246549E+03 E0= -.12246549E+03  EK= 0.16699E+01 SP= 0.18E+01 SK= 0.89E-02
    381 T=   357. E= -.11894382E+03 F= -.12243059E+03 E0= -.12243059E+03  EK= 0.16605E+01 SP= 0.18E+01 SK= 0.47E-02
    382 T=   353. E= -.11894380E+03 F= -.12239308E+03 E0= -.12239308E+03  EK= 0.16406E+01 SP= 0.18E+01 SK= 0.20E-02
    383 T=   346. E= -.11894376E+03 F= -.12235336E+03 E0= -.12235336E+03  EK= 0.16111E+01 SP= 0.18E+01 SK= 0.50E-03
    384 T=   338. E= -.11894370E+03 F= -.12231190E+03 E0= -.12231190E+03  EK= 0.15736E+01 SP= 0.18E+01 SK= 0.13E-04
    385 T=   329. E= -.11894365E+03 F= -.12226918E+03 E0= -.12226918E+03  EK= 0.15298E+01 SP= 0.18E+01 SK= 0.12E-03
    386 T=   318. E= -.11894359E+03 F= -.12222573E+03 E0= -.12222573E+03  EK= 0.14818E+01 SP= 0.18E+01 SK= 0.47E-03
    387 T=   308. E= -.11894355E+03 F= -.12218210E+03 E0= -.12218210E+03  EK= 0.14315E+01 SP= 0.18E+01 SK= 0.75E-03
    388 T=   297. E= -.11894351E+03 F= -.12213886E+03 E0= -.12213886E+03  EK= 0.13809E+01 SP= 0.18E+01 SK= 0.81E-03
    389 T=   286. E= -.11894349E+03 F= -.12209655E+03 E0= -.12209655E+03  EK= 0.13318E+01 SP= 0.18E+01 SK= 0.61E-03
    390 T=   276. E= -.11894347E+03 F= -.12205570E+03 E0= -.12205570E+03  EK= 0.12859E+01 SP= 0.18E+01 SK= 0.27E-03
    391 T=   267. E= -.11894347E+03 F= -.12201679E+03 E0= -.12201679E+03  EK= 0.12445E+01 SP= 0.18E+01 SK= 0.18E-04
    392 T=   260. E= -.11894347E+03 F= -.12198029E+03 E0= -.12198029E+03  EK= 0.12088E+01 SP= 0.18E+01 SK= 0.14E-03
    393 T=   254. E= -.11894346E+03 F= -.12194659E+03 E0= -.12194659E+03  EK= 0.11799E+01 SP= 0.18E+01 SK= 0.94E-03
    394 T=   249. E= -.11894346E+03 F= -.12191606E+03 E0= -.12191606E+03  EK= 0.11585E+01 SP= 0.18E+01 SK= 0.27E-02
    395 T=   246. E= -.11894345E+03 F= -.12188899E+03 E0= -.12188899E+03  EK= 0.11452E+01 SP= 0.18E+01 SK= 0.57E-02
    396 T=   245. E= -.11894343E+03 F= -.12186560E+03 E0= -.12186560E+03  EK= 0.11405E+01 SP= 0.18E+01 SK= 0.98E-02
    397 T=   246. E= -.11894341E+03 F= -.12184603E+03 E0= -.12184603E+03  EK= 0.11448E+01 SP= 0.17E+01 SK= 0.15E-01
    398 T=   249. E= -.11894337E+03 F= -.12183037E+03 E0= -.12183037E+03  EK= 0.11583E+01 SP= 0.17E+01 SK= 0.21E-01
    399 T=   254. E= -.11894333E+03 F= -.12181864E+03 E0= -.12181864E+03  EK= 0.11811E+01 SP= 0.17E+01 SK= 0.28E-01
    400 T=   261. E= -.11894329E+03 F= -.12181077E+03 E0= -.12181077E+03  EK= 0.12130E+01 SP= 0.16E+01 SK= 0.35E-01
    401 T=   269. E= -.11894325E+03 F= -.12180665E+03 E0= -.12180665E+03  EK= 0.12539E+01 SP= 0.16E+01 SK= 0.41E-01
    402 T=   280. E= -.11894322E+03 F= -.12180607E+03 E0= -.12180607E+03  EK= 0.13031E+01 SP= 0.15E+01 SK= 0.45E-01
    403 T=   292. E= -.11894321E+03 F= -.12180874E+03 E0= -.12180874E+03  EK= 0.13598E+01 SP= 0.15E+01 SK= 0.48E-01
    404 T=   306. E= -.11894323E+03 F= -.12181427E+03 E0= -.12181427E+03  EK= 0.14226E+01 SP= 0.14E+01 SK= 0.48E-01
    405 T=   320. E= -.11894329E+03 F= -.12182221E+03 E0= -.12182221E+03  EK= 0.14898E+01 SP= 0.13E+01 SK= 0.46E-01
    406 T=   335. E= -.11894338E+03 F= -.12183201E+03 E0= -.12183201E+03  EK= 0.15590E+01 SP= 0.13E+01 SK= 0.41E-01
    407 T=   350. E= -.11894350E+03 F= -.12184308E+03 E0= -.12184308E+03  EK= 0.16276E+01 SP= 0.12E+01 SK= 0.33E-01
    408 T=   364. E= -.11894365E+03 F= -.12185478E+03 E0= -.12185478E+03  EK= 0.16924E+01 SP= 0.12E+01 SK= 0.25E-01
    409 T=   376. E= -.11894382E+03 F= -.12186651E+03 E0= -.12186651E+03  EK= 0.17500E+01 SP= 0.12E+01 SK= 0.16E-01
    410 T=   386. E= -.11894397E+03 F= -.12187766E+03 E0= -.12187766E+03  EK= 0.17974E+01 SP= 0.11E+01 SK= 0.83E-02
    411 T=   394. E= -.11894410E+03 F= -.12188764E+03 E0= -.12188764E+03  EK= 0.18316E+01 SP= 0.11E+01 SK= 0.26E-02
    412 T=   398. E= -.11894417E+03 F= -.12189593E+03 E0= -.12189593E+03  EK= 0.18502E+01 SP= 0.11E+01 SK= 0.78E-04
    413 T=   398. E= -.11894418E+03 F= -.12190215E+03 E0= -.12190215E+03  EK= 0.18519E+01 SP= 0.11E+01 SK= 0.12E-02
    414 T=   395. E= -.11894412E+03 F= -.12190604E+03 E0= -.12190604E+03  EK= 0.18365E+01 SP= 0.11E+01 SK= 0.59E-02
    415 T=   388. E= -.11894401E+03 F= -.12190756E+03 E0= -.12190756E+03  EK= 0.18047E+01 SP= 0.11E+01 SK= 0.14E-01
    416 T=   378. E= -.11894387E+03 F= -.12190680E+03 E0= -.12190680E+03  EK= 0.17585E+01 SP= 0.12E+01 SK= 0.24E-01
    417 T=   365. E= -.11894370E+03 F= -.12190396E+03 E0= -.12190396E+03  EK= 0.17005E+01 SP= 0.12E+01 SK= 0.35E-01
    418 T=   351. E= -.11894354E+03 F= -.12189934E+03 E0= -.12189934E+03  EK= 0.16337E+01 SP= 0.13E+01 SK= 0.45E-01
    419 T=   336. E= -.11894340E+03 F= -.12189337E+03 E0= -.12189337E+03  EK= 0.15613E+01 SP= 0.13E+01 SK= 0.53E-01
    420 T=   319. E= -.11894330E+03 F= -.12188650E+03 E0= -.12188650E+03  EK= 0.14867E+01 SP= 0.14E+01 SK= 0.59E-01
    421 T=   304. E= -.11894324E+03 F= -.12187922E+03 E0= -.12187922E+03  EK= 0.14125E+01 SP= 0.15E+01 SK= 0.61E-01
    422 T=   288. E= -.11894322E+03 F= -.12187201E+03 E0= -.12187201E+03  EK= 0.13414E+01 SP= 0.15E+01 SK= 0.61E-01
    423 T=   274. E= -.11894323E+03 F= -.12186532E+03 E0= -.12186532E+03  EK= 0.12752E+01 SP= 0.16E+01 SK= 0.57E-01
    424 T=   261. E= -.11894327E+03 F= -.12185957E+03 E0= -.12185957E+03  EK= 0.12154E+01 SP= 0.17E+01 SK= 0.50E-01
    425 T=   250. E= -.11894332E+03 F= -.12185515E+03 E0= -.12185515E+03  EK= 0.11631E+01 SP= 0.17E+01 SK= 0.42E-01
    426 T=   241. E= -.11894337E+03 F= -.12185238E+03 E0= -.12185238E+03  EK= 0.11192E+01 SP= 0.18E+01 SK= 0.32E-01
    427 T=   233. E= -.11894343E+03 F= -.12185154E+03 E0= -.12185154E+03  EK= 0.10839E+01 SP= 0.18E+01 SK= 0.23E-01
    428 T=   227. E= -.11894347E+03 F= -.12185284E+03 E0= -.12185284E+03  EK= 0.10576E+01 SP= 0.18E+01 SK= 0.15E-01
    429 T=   224. E= -.11894350E+03 F= -.12185648E+03 E0= -.12185648E+03  EK= 0.10405E+01 SP= 0.19E+01 SK= 0.79E-02
    430 T=   222. E= -.11894352E+03 F= -.12186258E+03 E0= -.12186258E+03  EK= 0.10326E+01 SP= 0.19E+01 SK= 0.30E-02
    431 T=   222. E= -.11894352E+03 F= -.12187124E+03 E0= -.12187124E+03  EK= 0.10339E+01 SP= 0.19E+01 SK= 0.43E-03
    432 T=   224. E= -.11894351E+03 F= -.12188251E+03 E0= -.12188251E+03  EK= 0.10445E+01 SP= 0.19E+01 SK= 0.17E-03
    433 T=   229. E= -.11894348E+03 F= -.12189640E+03 E0= -.12189640E+03  EK= 0.10642E+01 SP= 0.19E+01 SK= 0.20E-02
    434 T=   235. E= -.11894344E+03 F= -.12191287E+03 E0= -.12191287E+03  EK= 0.10929E+01 SP= 0.19E+01 SK= 0.57E-02
    435 T=   243. E= -.11894339E+03 F= -.12193183E+03 E0= -.12193183E+03  EK= 0.11304E+01 SP= 0.18E+01 SK= 0.10E-01
    436 T=   253. E= -.11894334E+03 F= -.12195316E+03 E0= -.12195316E+03  EK= 0.11764E+01 SP= 0.18E+01 SK= 0.16E-01
    437 T=   264. E= -.11894329E+03 F= -.12197671E+03 E0= -.12197671E+03  EK= 0.12303E+01 SP= 0.18E+01 SK= 0.21E-01
    438 T=   278. E= -.11894326E+03 F= -.12200228E+03 E0= -.12200228E+03  EK= 0.12913E+01 SP= 0.17E+01 SK= 0.24E-01
    439 T=   292. E= -.11894325E+03 F= -.12202962E+03 E0= -.12202962E+03  EK= 0.13583E+01 SP= 0.17E+01 SK= 0.26E-01
    440 T=   307. E= -.11894327E+03 F= -.12205838E+03 E0= -.12205838E+03  EK= 0.14297E+01 SP= 0.17E+01 SK= 0.27E-01
    441 T=   323. E= -.11894333E+03 F= -.12208818E+03 E0= -.12208818E+03  EK= 0.15035E+01 SP= 0.16E+01 SK= 0.24E-01
    442 T=   339. E= -.11894342E+03 F= -.12211856E+03 E0= -.12211856E+03  EK= 0.15771E+01 SP= 0.16E+01 SK= 0.20E-01
    443 T=   354. E= -.11894355E+03 F= -.12214903E+03 E0= -.12214903E+03  EK= 0.16475E+01 SP= 0.15E+01 SK= 0.15E-01
    444 T=   368. E= -.11894368E+03 F= -.12217909E+03 E0= -.12217909E+03  EK= 0.17118E+01 SP= 0.15E+01 SK= 0.90E-02
    445 T=   380. E= -.11894382E+03 F= -.12220821E+03 E0= -.12220821E+03  EK= 0.17665E+01 SP= 0.15E+01 SK= 0.39E-02
    446 T=   389. E= -.11894393E+03 F= -.12223590E+03 E0= -.12223590E+03  EK= 0.18089E+01 SP= 0.15E+01 SK= 0.63E-03
    447 T=   395. E= -.11894401E+03 F= -.12226170E+03 E0= -.12226170E+03  EK= 0.18363E+01 SP= 0.15E+01 SK= 0.24E-03
    448 T=   397. E= -.11894403E+03 F= -.12228518E+03 E0= -.12228518E+03  EK= 0.18470E+01 SP= 0.15E+01 SK= 0.33E-02
    449 T=   396. E= -.11894398E+03 F= -.12230603E+03 E0= -.12230603E+03  EK= 0.18405E+01 SP= 0.15E+01 SK= 0.10E-01
    450 T=   390. E= -.11894388E+03 F= -.12232407E+03 E0= -.12232407E+03  EK= 0.18170E+01 SP= 0.15E+01 SK= 0.20E-01
    451 T=   382. E= -.11894374E+03 F= -.12233919E+03 E0= -.12233919E+03  EK= 0.17778E+01 SP= 0.16E+01 SK= 0.32E-01
    452 T=   371. E= -.11894358E+03 F= -.12235139E+03 E0= -.12235139E+03  EK= 0.17254E+01 SP= 0.16E+01 SK= 0.46E-01
    453 T=   357. E= -.11894342E+03 F= -.12236079E+03 E0= -.12236079E+03  EK= 0.16624E+01 SP= 0.17E+01 SK= 0.58E-01
    454 T=   342. E= -.11894328E+03 F= -.12236760E+03 E0= -.12236760E+03  EK= 0.15919E+01 SP= 0.18E+01 SK= 0.69E-01
    455 T=   326. E= -.11894317E+03 F= -.12237212E+03 E0= -.12237212E+03  EK= 0.15172E+01 SP= 0.18E+01 SK= 0.78E-01
    456 T=   310. E= -.11894310E+03 F= -.12237467E+03 E0= -.12237467E+03  EK= 0.14412E+01 SP= 0.19E+01 SK= 0.82E-01
    457 T=   294. E= -.11894307E+03 F= -.12237565E+03 E0= -.12237565E+03  EK= 0.13665E+01 SP= 0.20E+01 SK= 0.83E-01
    458 T=   278. E= -.11894307E+03 F= -.12237546E+03 E0= -.12237546E+03  EK= 0.12952E+01 SP= 0.21E+01 SK= 0.79E-01
    459 T=   264. E= -.11894311E+03 F= -.12237452E+03 E0= -.12237452E+03  EK= 0.12290E+01 SP= 0.21E+01 SK= 0.72E-01
    460 T=   251. E= -.11894316E+03 F= -.12237324E+03 E0= -.12237324E+03  EK= 0.11693E+01 SP= 0.22E+01 SK= 0.62E-01
    461 T=   240. E= -.11894323E+03 F= -.12237199E+03 E0= -.12237199E+03  EK= 0.11169E+01 SP= 0.23E+01 SK= 0.51E-01
[...]
Warning: ieee_divide_by_zero is signaling
Warning: ieee_underflow is signaling
Warning: ieee_inexact is signaling
FORTRAN STOP
Warning: ieee_invalid is signaling
Warning: ieee_divide_by_zero is signaling
Warning: ieee_underflow is signaling
Warning: ieee_inexact is signaling
FORTRAN STOP
Warning: ieee_invalid is signaling
Warning: ieee_divide_by_zero is signaling
Warning: ieee_underflow is signaling
Warning: ieee_inexact is signaling
FORTRAN STOP
Warning: ieee_invalid is signaling
Warning: ieee_divide_by_zero is signaling
Warning: ieee_underflow is signaling
Warning: ieee_inexact is signaling
FORTRAN STOP
Warning: ieee_invalid is signaling
Warning: ieee_divide_by_zero is signaling
Warning: ieee_underflow is signaling
Warning: ieee_inexact is signaling
FORTRAN STOP
Warning: ieee_invalid is signaling
Warning: ieee_divide_by_zero is signaling
Warning: ieee_underflow is signaling
Warning: ieee_inexact is signaling
FORTRAN STOP
Warning: ieee_invalid is signaling
Warning: ieee_divide_by_zero is signaling
Warning: ieee_underflow is signaling
Warning: ieee_inexact is signaling
FORTRAN STOP
Warning: ieee_invalid is signaling
Warning: ieee_divide_by_zero is signaling
Warning: ieee_underflow is signaling
Warning: ieee_inexact is signaling
FORTRAN STOP
Warning: ieee_invalid is signaling
Warning: ieee_divide_by_zero is signaling
Warning: ieee_underflow is signaling
Warning: ieee_inexact is signaling
FORTRAN STOP
Warning: ieee_invalid is signaling
Warning: ieee_divide_by_zero is signaling
Warning: ieee_underflow is signaling
Warning: ieee_inexact is signaling
FORTRAN STOP
Warning: ieee_invalid is signaling
Warning: ieee_divide_by_zero is signaling
Warning: ieee_underflow is signaling
Warning: ieee_inexact is signaling
FORTRAN STOP
Warning: ieee_invalid is signaling
Warning: ieee_divide_by_zero is signaling
Warning: ieee_underflow is signaling
Warning: ieee_inexact is signaling
FORTRAN STOP
Warning: ieee_invalid is signaling
Warning: ieee_divide_by_zero is signaling
Warning: ieee_underflow is signaling
Warning: ieee_inexact is signaling
FORTRAN STOP
Warning: ieee_invalid is signaling
Warning: ieee_divide_by_zero is signaling
Warning: ieee_underflow is signaling
Warning: ieee_inexact is signaling
FORTRAN STOP
Warning: ieee_invalid is signaling
Warning: ieee_divide_by_zero is signaling
Warning: ieee_underflow is signaling
Warning: ieee_inexact is signaling
FORTRAN STOP
Warning: ieee_invalid is signaling
Warning: ieee_divide_by_zero is signaling
Warning: ieee_underflow is signaling
Warning: ieee_inexact is signaling
FORTRAN STOP
Warning: ieee_invalid is signaling
Warning: ieee_divide_by_zero is signaling
Warning: ieee_underflow is signaling
Warning: ieee_inexact is signaling
FORTRAN STOP
Warning: ieee_invalid is signaling
Warning: ieee_divide_by_zero is signaling
Warning: ieee_underflow is signaling
Warning: ieee_inexact is signaling
FORTRAN STOP
Warning: ieee_invalid is signaling
Warning: ieee_divide_by_zero is signaling
Warning: ieee_underflow is signaling
Warning: ieee_inexact is signaling
FORTRAN STOP
Warning: ieee_invalid is signaling
Warning: ieee_divide_by_zero is signaling
Warning: ieee_underflow is signaling
Warning: ieee_inexact is signaling
FORTRAN STOP
Warning: ieee_invalid is signaling
Warning: ieee_divide_by_zero is signaling
Warning: ieee_underflow is signaling
Warning: ieee_inexact is signaling
FORTRAN STOP
Warning: ieee_invalid is signaling
Warning: ieee_divide_by_zero is signaling
Warning: ieee_underflow is signaling
Warning: ieee_inexact is signaling
FORTRAN STOP
Warning: ieee_invalid is signaling
Warning: ieee_divide_by_zero is signaling
Warning: ieee_underflow is signaling
Warning: ieee_inexact is signaling
FORTRAN STOP
Warning: ieee_invalid is signaling
Warning: ieee_divide_by_zero is signaling
Warning: ieee_underflow is signaling
Warning: ieee_inexact is signaling
FORTRAN STOP
Warning: ieee_invalid is signaling
Warning: ieee_divide_by_zero is signaling
Warning: ieee_underflow is signaling
Warning: ieee_inexact is signaling
FORTRAN STOP
Warning: ieee_invalid is signaling
Warning: ieee_divide_by_zero is signaling
Warning: ieee_underflow is signaling
Warning: ieee_inexact is signaling
FORTRAN STOP
Warning: ieee_invalid is signaling
Warning: ieee_divide_by_zero is signaling
Warning: ieee_underflow is signaling
Warning: ieee_inexact is signaling
FORTRAN STOP
Warning: ieee_invalid is signaling
Warning: ieee_divide_by_zero is signaling
Warning: ieee_underflow is signaling
Warning: ieee_inexact is signaling
FORTRAN STOP
Warning: ieee_invalid is signaling
Warning: ieee_divide_by_zero is signaling
Warning: ieee_underflow is signaling
Warning: ieee_inexact is signaling
FORTRAN STOP
Warning: ieee_invalid is signaling
Warning: ieee_divide_by_zero is signaling
Warning: ieee_underflow is signaling
Warning: ieee_inexact is signaling
FORTRAN STOP
Warning: ieee_invalid is signaling
Warning: ieee_divide_by_zero is signaling
Warning: ieee_underflow is signaling
Warning: ieee_inexact is signaling
FORTRAN STOP
Warning: ieee_invalid is signaling
Warning: ieee_divide_by_zero is signaling
Warning: ieee_underflow is signaling
Warning: ieee_inexact is signaling
FORTRAN STOP
Warning: ieee_invalid is signaling
Warning: ieee_divide_by_zero is signaling
Warning: ieee_underflow is signaling
Warning: ieee_inexact is signaling
FORTRAN STOP
Warning: ieee_invalid is signaling
Warning: ieee_divide_by_zero is signaling
Warning: ieee_underflow is signaling
Warning: ieee_inexact is signaling
FORTRAN STOP
Warning: ieee_invalid is signaling
Warning: ieee_divide_by_zero is signaling
Warning: ieee_underflow is signaling
Warning: ieee_inexact is signaling
FORTRAN STOP
Warning: ieee_invalid is signaling
Warning: ieee_divide_by_zero is signaling
Warning: ieee_underflow is signaling
Warning: ieee_inexact is signaling
FORTRAN STOP
Warning: ieee_invalid is signaling
Warning: ieee_divide_by_zero is signaling
Warning: ieee_underflow is signaling
Warning: ieee_inexact is signaling
FORTRAN STOP
Warning: ieee_invalid is signaling
Warning: ieee_divide_by_zero is signaling
Warning: ieee_underflow is signaling
Warning: ieee_inexact is signaling
FORTRAN STOP
Warning: ieee_invalid is signaling
Warning: ieee_divide_by_zero is signaling
Warning: ieee_underflow is signaling
Warning: ieee_inexact is signaling
FORTRAN STOP
Warning: ieee_invalid is signaling
Warning: ieee_divide_by_zero is signaling
Warning: ieee_underflow is signaling
Warning: ieee_inexact is signaling
FORTRAN STOP
Warning: ieee_invalid is signaling
Warning: ieee_divide_by_zero is signaling
Warning: ieee_underflow is signaling
Warning: ieee_inexact is signaling
FORTRAN STOP
Warning: ieee_invalid is signaling
Warning: ieee_divide_by_zero is signaling
Warning: ieee_underflow is signaling
Warning: ieee_inexact is signaling
FORTRAN STOP
Warning: ieee_invalid is signaling
Warning: ieee_divide_by_zero is signaling
Warning: ieee_underflow is signaling
Warning: ieee_inexact is signaling
FORTRAN STOP
Warning: ieee_invalid is signaling
Warning: ieee_divide_by_zero is signaling
Warning: ieee_underflow is signaling
Warning: ieee_inexact is signaling
FORTRAN STOP
Warning: ieee_invalid is signaling
Warning: ieee_divide_by_zero is signaling
Warning: ieee_underflow is signaling
Warning: ieee_inexact is signaling
FORTRAN STOP
Warning: ieee_invalid is signaling
Warning: ieee_divide_by_zero is signaling
Warning: ieee_underflow is signaling
Warning: ieee_inexact is signaling
FORTRAN STOP
Warning: ieee_invalid is signaling
Warning: ieee_divide_by_zero is signaling
Warning: ieee_underflow is signaling
Warning: ieee_inexact is signaling
FORTRAN STOP
Warning: ieee_invalid is signaling
Warning: ieee_divide_by_zero is signaling
Warning: ieee_underflow is signaling
Warning: ieee_inexact is signaling
FORTRAN STOP
Warning: ieee_invalid is signaling
Warning: ieee_divide_by_zero is signaling
Warning: ieee_underflow is signaling
Warning: ieee_inexact is signaling
FORTRAN STOP
Warning: ieee_invalid is signaling
Warning: ieee_divide_by_zero is signaling
Warning: ieee_underflow is signaling
Warning: ieee_inexact is signaling
FORTRAN STOP
Warning: ieee_invalid is signaling
Warning: ieee_divide_by_zero is signaling
Warning: ieee_underflow is signaling
Warning: ieee_inexact is signaling
FORTRAN STOP
Warning: ieee_invalid is signaling
Warning: ieee_divide_by_zero is signaling
Warning: ieee_underflow is signaling
Warning: ieee_inexact is signaling
FORTRAN STOP
Warning: ieee_invalid is signaling
Warning: ieee_divide_by_zero is signaling
Warning: ieee_underflow is signaling
Warning: ieee_inexact is signaling
FORTRAN STOP
Warning: ieee_invalid is signaling
Warning: ieee_divide_by_zero is signaling
Warning: ieee_underflow is signaling
Warning: ieee_inexact is signaling
FORTRAN STOP
Warning: ieee_invalid is signaling
Warning: ieee_divide_by_zero is signaling
Warning: ieee_underflow is signaling
Warning: ieee_inexact is signaling
FORTRAN STOP
Warning: ieee_invalid is signaling
Warning: ieee_divide_by_zero is signaling
Warning: ieee_underflow is signaling
Warning: ieee_inexact is signaling
FORTRAN STOP
Warning: ieee_invalid is signaling
Warning: ieee_divide_by_zero is signaling
Warning: ieee_underflow is signaling
Warning: ieee_inexact is signaling
FORTRAN STOP
Warning: ieee_invalid is signaling
Warning: ieee_divide_by_zero is signaling
Warning: ieee_underflow is signaling
Warning: ieee_inexact is signaling
FORTRAN STOP
Warning: ieee_invalid is signaling
Warning: ieee_divide_by_zero is signaling
Warning: ieee_underflow is signaling
Warning: ieee_inexact is signaling
FORTRAN STOP
Warning: ieee_invalid is signaling
Warning: ieee_divide_by_zero is signaling
Warning: ieee_underflow is signaling
Warning: ieee_inexact is signaling
FORTRAN STOP
Warning: ieee_invalid is signaling
Warning: ieee_divide_by_zero is signaling
Warning: ieee_underflow is signaling
Warning: ieee_inexact is signaling
FORTRAN STOP
Warning: ieee_invalid is signaling
Warning: ieee_divide_by_zero is signaling
Warning: ieee_underflow is signaling
Warning: ieee_inexact is signaling
FORTRAN STOP
Warning: ieee_invalid is signaling
Warning: ieee_divide_by_zero is signaling
Warning: ieee_underflow is signaling
Warning: ieee_inexact is signaling
FORTRAN STOP
Warning: ieee_invalid is signaling
Warning: ieee_divide_by_zero is signaling
Warning: ieee_underflow is signaling
Warning: ieee_inexact is signaling
FORTRAN STOP
Warning: ieee_invalid is signaling
Warning: ieee_divide_by_zero is signaling
Warning: ieee_underflow is signaling
Warning: ieee_inexact is signaling
FORTRAN STOP
Warning: ieee_invalid is signaling
Warning: ieee_divide_by_zero is signaling
Warning: ieee_underflow is signaling
Warning: ieee_inexact is signaling
FORTRAN STOP
Warning: ieee_invalid is signaling
Warning: ieee_divide_by_zero is signaling
Warning: ieee_underflow is signaling
Warning: ieee_inexact is signaling
FORTRAN STOP
Warning: ieee_invalid is signaling
Warning: ieee_divide_by_zero is signaling
Warning: ieee_underflow is signaling
Warning: ieee_inexact is signaling
FORTRAN STOP
Warning: ieee_invalid is signaling
Warning: ieee_divide_by_zero is signaling
Warning: ieee_underflow is signaling
Warning: ieee_inexact is signaling
FORTRAN STOP
Warning: ieee_invalid is signaling
Warning: ieee_divide_by_zero is signaling
Warning: ieee_underflow is signaling
Warning: ieee_inexact is signaling
FORTRAN STOP
Warning: ieee_invalid is signaling
Warning: ieee_divide_by_zero is signaling
Warning: ieee_underflow is signaling
Warning: ieee_inexact is signaling
FORTRAN STOP
   2978 T=   331. E= -.11872012E+03 F= -.12244789E+03 E0= -.12244789E+03  EK= 0.15394E+01 SP= 0.21E+01 SK= 0.54E-01
   2979 T=   345. E= -.11872025E+03 F= -.12244930E+03 E0= -.12244930E+03  EK= 0.16067E+01 SP= 0.21E+01 SK= 0.46E-01
   2980 T=   358. E= -.11872039E+03 F= -.12244803E+03 E0= -.12244803E+03  EK= 0.16680E+01 SP= 0.20E+01 SK= 0.37E-01
   2981 T=   370. E= -.11872054E+03 F= -.12244366E+03 E0= -.12244366E+03  EK= 0.17201E+01 SP= 0.20E+01 SK= 0.27E-01
   2982 T=   378. E= -.11872068E+03 F= -.12243585E+03 E0= -.12243585E+03  EK= 0.17604E+01 SP= 0.19E+01 SK= 0.17E-01
   2983 T=   384. E= -.11872078E+03 F= -.12242440E+03 E0= -.12242440E+03  EK= 0.17865E+01 SP= 0.19E+01 SK= 0.90E-02
   2984 T=   386. E= -.11872083E+03 F= -.12240926E+03 E0= -.12240926E+03  EK= 0.17969E+01 SP= 0.19E+01 SK= 0.33E-02
   2985 T=   385. E= -.11872083E+03 F= -.12239054E+03 E0= -.12239054E+03  EK= 0.17911E+01 SP= 0.19E+01 SK= 0.37E-03
   2986 T=   380. E= -.11872077E+03 F= -.12236849E+03 E0= -.12236849E+03  EK= 0.17695E+01 SP= 0.19E+01 SK= 0.30E-03
   2987 T=   372. E= -.11872067E+03 F= -.12234353E+03 E0= -.12234353E+03  EK= 0.17333E+01 SP= 0.19E+01 SK= 0.26E-02
   2988 T=   362. E= -.11872054E+03 F= -.12231622E+03 E0= -.12231622E+03  EK= 0.16848E+01 SP= 0.19E+01 SK= 0.65E-02
   2989 T=   350. E= -.11872041E+03 F= -.12228720E+03 E0= -.12228720E+03  EK= 0.16269E+01 SP= 0.19E+01 SK= 0.11E-01
   2990 T=   336. E= -.11872028E+03 F= -.12225719E+03 E0= -.12225719E+03  EK= 0.15624E+01 SP= 0.20E+01 SK= 0.16E-01
   2991 T=   321. E= -.11872018E+03 F= -.12222692E+03 E0= -.12222692E+03  EK= 0.14946E+01 SP= 0.20E+01 SK= 0.19E-01
   2992 T=   307. E= -.11872011E+03 F= -.12219712E+03 E0= -.12219712E+03  EK= 0.14264E+01 SP= 0.20E+01 SK= 0.21E-01
   2993 T=   292. E= -.11872007E+03 F= -.12216850E+03 E0= -.12216850E+03  EK= 0.13603E+01 SP= 0.21E+01 SK= 0.20E-01
   2994 T=   279. E= -.11872006E+03 F= -.12214171E+03 E0= -.12214171E+03  EK= 0.12985E+01 SP= 0.21E+01 SK= 0.19E-01
   2995 T=   267. E= -.11872006E+03 F= -.12211733E+03 E0= -.12211733E+03  EK= 0.12429E+01 SP= 0.21E+01 SK= 0.16E-01
   2996 T=   257. E= -.11872008E+03 F= -.12209587E+03 E0= -.12209587E+03  EK= 0.11947E+01 SP= 0.22E+01 SK= 0.12E-01
   2997 T=   248. E= -.11872011E+03 F= -.12207778E+03 E0= -.12207778E+03  EK= 0.11551E+01 SP= 0.22E+01 SK= 0.76E-02
   2998 T=   242. E= -.11872014E+03 F= -.12206341E+03 E0= -.12206341E+03  EK= 0.11246E+01 SP= 0.22E+01 SK= 0.40E-02
   2999 T=   237. E= -.11872016E+03 F= -.12205304E+03 E0= -.12205304E+03  EK= 0.11037E+01 SP= 0.22E+01 SK= 0.13E-02
   3000 T=   235. E= -.11872017E+03 F= -.12204685E+03 E0= -.12204685E+03  EK= 0.10929E+01 SP= 0.22E+01 SK= 0.70E-04
 PROFILE, used timers:     428
Warning: ieee_invalid is signaling
Warning: ieee_divide_by_zero is signaling
Warning: ieee_underflow is signaling
Warning: ieee_inexact is signaling
FORTRAN STOP
Warning: ieee_invalid is signaling
Warning: ieee_divide_by_zero is signaling
Warning: ieee_underflow is signaling
Warning: ieee_inexact is signaling
FORTRAN STOP
Warning: ieee_invalid is signaling
Warning: ieee_divide_by_zero is signaling
Warning: ieee_underflow is signaling
Warning: ieee_inexact is signaling
FORTRAN STOP
Warning: ieee_invalid is signaling
Warning: ieee_divide_by_zero is signaling
Warning: ieee_underflow is signaling
Warning: ieee_inexact is signaling
FORTRAN STOP
Warning: ieee_invalid is signaling
Warning: ieee_divide_by_zero is signaling
Warning: ieee_underflow is signaling
Warning: ieee_inexact is signaling
FORTRAN STOP
Warning: ieee_invalid is signaling
Warning: ieee_divide_by_zero is signaling
Warning: ieee_underflow is signaling
Warning: ieee_inexact is signaling
FORTRAN STOP
Warning: ieee_invalid is signaling
Warning: ieee_divide_by_zero is signaling
Warning: ieee_underflow is signaling
Warning: ieee_inexact is signaling
FORTRAN STOP
Warning: ieee_invalid is signaling
Warning: ieee_divide_by_zero is signaling
Warning: ieee_underflow is signaling
Warning: ieee_inexact is signaling
FORTRAN STOP
Warning: ieee_invalid is signaling
Warning: ieee_divide_by_zero is signaling
Warning: ieee_underflow is signaling
Warning: ieee_inexact is signaling
FORTRAN STOP
Warning: ieee_invalid is signaling
Warning: ieee_divide_by_zero is signaling
Warning: ieee_underflow is signaling
Warning: ieee_inexact is signaling
FORTRAN STOP
Warning: ieee_invalid is signaling
Warning: ieee_divide_by_zero is signaling
Warning: ieee_underflow is signaling
Warning: ieee_inexact is signaling
FORTRAN STOP
Warning: ieee_invalid is signaling
Warning: ieee_divide_by_zero is signaling
Warning: ieee_underflow is signaling
Warning: ieee_inexact is signaling
FORTRAN STOP
Warning: ieee_invalid is signaling
Warning: ieee_divide_by_zero is signaling
Warning: ieee_underflow is signaling
Warning: ieee_inexact is signaling
FORTRAN STOP
Warning: ieee_invalid is signaling
Warning: ieee_divide_by_zero is signaling
Warning: ieee_underflow is signaling
Warning: ieee_inexact is signaling
FORTRAN STOP
Warning: ieee_invalid is signaling
Warning: ieee_divide_by_zero is signaling
Warning: ieee_underflow is signaling
Warning: ieee_inexact is signaling
FORTRAN STOP
Warning: ieee_invalid is signaling
Warning: ieee_divide_by_zero is signaling
Warning: ieee_underflow is signaling
Warning: ieee_inexact is signaling
FORTRAN STOP
Warning: ieee_invalid is signaling
Warning: ieee_divide_by_zero is signaling
Warning: ieee_underflow is signaling
Warning: ieee_inexact is signaling
FORTRAN STOP
Warning: ieee_invalid is signaling
Warning: ieee_divide_by_zero is signaling
Warning: ieee_underflow is signaling
Warning: ieee_inexact is signaling
FORTRAN STOP
Warning: ieee_invalid is signaling
Warning: ieee_divide_by_zero is signaling
Warning: ieee_underflow is signaling
Warning: ieee_inexact is signaling
FORTRAN STOP
Warning: ieee_invalid is signaling
Warning: ieee_divide_by_zero is signaling
Warning: ieee_underflow is signaling
Warning: ieee_inexact is signaling
FORTRAN STOP
Warning: ieee_invalid is signaling
Warning: ieee_divide_by_zero is signaling
Warning: ieee_underflow is signaling
Warning: ieee_inexact is signaling
FORTRAN STOP
Warning: ieee_invalid is signaling
Warning: ieee_divide_by_zero is signaling
Warning: ieee_underflow is signaling
Warning: ieee_inexact is signaling
FORTRAN STOP
Warning: ieee_invalid is signaling
Warning: ieee_divide_by_zero is signaling
Warning: ieee_underflow is signaling
Warning: ieee_inexact is signaling
FORTRAN STOP
Warning: ieee_invalid is signaling
Warning: ieee_divide_by_zero is signaling
Warning: ieee_underflow is signaling
Warning: ieee_inexact is signaling
FORTRAN STOP
Warning: ieee_invalid is signaling
Warning: ieee_divide_by_zero is signaling
Warning: ieee_underflow is signaling
Warning: ieee_inexact is signaling
FORTRAN STOP
Warning: ieee_invalid is signaling
Warning: ieee_divide_by_zero is signaling
Warning: ieee_underflow is signaling
Warning: ieee_inexact is signaling
FORTRAN STOP
Warning: ieee_invalid is signaling
Warning: ieee_divide_by_zero is signaling
Warning: ieee_underflow is signaling
Warning: ieee_inexact is signaling
FORTRAN STOP
Warning: ieee_invalid is signaling
Warning: ieee_divide_by_zero is signaling
Warning: ieee_underflow is signaling
Warning: ieee_inexact is signaling
FORTRAN STOP
Warning: ieee_invalid is signaling
Warning: ieee_divide_by_zero is signaling
Warning: ieee_underflow is signaling
Warning: ieee_inexact is signaling
FORTRAN STOP
Warning: ieee_invalid is signaling
Warning: ieee_divide_by_zero is signaling
Warning: ieee_underflow is signaling
Warning: ieee_inexact is signaling
FORTRAN STOP
Warning: ieee_invalid is signaling
Warning: ieee_divide_by_zero is signaling
Warning: ieee_underflow is signaling
Warning: ieee_inexact is signaling
FORTRAN STOP
Warning: ieee_invalid is signaling
Warning: ieee_divide_by_zero is signaling
Warning: ieee_underflow is signaling
Warning: ieee_inexact is signaling
FORTRAN STOP
Warning: ieee_invalid is signaling
Warning: ieee_divide_by_zero is signaling
Warning: ieee_underflow is signaling
Warning: ieee_inexact is signaling
FORTRAN STOP
Warning: ieee_invalid is signaling
Warning: ieee_divide_by_zero is signaling
Warning: ieee_underflow is signaling
Warning: ieee_inexact is signaling
FORTRAN STOP
Warning: ieee_invalid is signaling
Warning: ieee_divide_by_zero is signaling
Warning: ieee_underflow is signaling
Warning: ieee_inexact is signaling
FORTRAN STOP
Warning: ieee_invalid is signaling
Warning: ieee_divide_by_zero is signaling
Warning: ieee_underflow is signaling
Warning: ieee_inexact is signaling
FORTRAN STOP
