 vasp.6.4.0 14Feb23 (build Mar 16 2023 23:21:51) complex                         
 executed on    LinuxNV_CrayMPICH date 2023.07.27  08:35:54
 running  128 mpi-ranks, on    1 nodes
 distrk:  each k-point on  128 cores,    1 groups
 distr:  one band on NCORE=   1 cores,  128 groups
 OpenACC runtime initialized ...    0 GPUs detected


--------------------------------------------------------------------------------------------------------


 INCAR:
   SYSTEM = AIMD-MLFF-ON-THE-FLY
   ISTART = 0
   ICHARG = 2
   LWAVE = .FALSE.
   LCHARG = .FALSE.
   LVTOT = .FALSE.
   LVHAR = .FALSE.
   LELF = .FALSE.
   LREAL = Auto
   ENCUT = 400
   ISMEAR = 0
   SIGMA = 0.1
   EDIFF = 1E-5
   NELM = 40
   GGA = PE
   LREAL = Auto
   ISYM = 0
   ISIF = 2
   NSW = 3000
   POTIM = 1
   SMASS = 0
   MDALGO = 2
   TEBEG = 300
   ML_LMLFF = .TRUE.
   ML_ISTART = 0

 POTCAR:    PAW_PBE Al 04Jan2001                  
 -----------------------------------------------------------------------------
|                                                                             |
|           W    W    AA    RRRRR   N    N  II  N    N   GGGG   !!!           |
|           W    W   A  A   R    R  NN   N  II  NN   N  G    G  !!!           |
|           W    W  A    A  R    R  N N  N  II  N N  N  G       !!!           |
|           W WW W  AAAAAA  RRRRR   N  N N  II  N  N N  G  GGG   !            |
|           WW  WW  A    A  R   R   N   NN  II  N   NN  G    G                |
|           W    W  A    A  R    R  N    N  II  N    N   GGGG   !!!           |
|                                                                             |
|     For optimal performance we recommend to set                             |
|       NCORE = 2 up to number-of-cores-per-socket                            |
|     NCORE specifies how many cores store one orbital (NPAR=cpu/NCORE).      |
|     This setting can greatly improve the performance of VASP for DFT.       |
|     The default, NCORE=1 might be grossly inefficient on modern             |
|     multi-core architectures or massively parallel machines. Do your        |
|     own testing! More info at https://www.vasp.at/wiki/index.php/NCORE      |
|     Unfortunately you need to use the default for GW and RPA                |
|     calculations (for HF NCORE is supported but not extensively tested      |
|     yet).                                                                   |
|                                                                             |
 -----------------------------------------------------------------------------

 POTCAR:    PAW_PBE Al 04Jan2001                  
   SHA256 =  17880443556af62b473fe41b62a467bd001ad55d2cabe504a3f22e34d4e9db96 Al/POTCAR             
   COPYR  = (c) Copyright 04Jan2001 Georg Kresse                                                    
   COPYR  = This file is part of the software VASP. Any use, copying, and all other rights are regul
   COPYR  = If you do not have a valid VASP license, you may not use, copy or distribute this file. 
   VRHFIN =Al: s2p1                                                                                 
   LEXCH  = PE                                                                                      
   EATOM  =    53.5387 eV,    3.9350 Ry                                                             
                                                                                                    
   TITEL  = PAW_PBE Al 04Jan2001                                                                    
   LULTRA =        F    use ultrasoft PP ?                                                          
   IUNSCR =        1    unscreen: 0-lin 1-nonlin 2-no                                               
   RPACOR =    1.500    partial core radius                                                         
   POMASS =   26.981; ZVAL   =    3.000    mass and valenz                                          
   RCORE  =    1.900    outmost cutoff radius                                                       
   RWIGS  =    2.650; RWIGS  =    1.402    wigner-seitz radius (au A)                               
   ENMAX  =  240.300; ENMIN  =  180.225 eV                                                          
   ICORE  =        2    local potential                                                             
   LCOR   =        T    correct aug charges                                                         
   LPAW   =        T    paw PP                                                                      
   EAUG   =  291.052                                                                                
   DEXC   =    0.000                                                                                
   RMAX   =    1.939    core radius for proj-oper                                                   
   RAUG   =    1.300    factor for augmentation sphere                                              
   RDEP   =    1.966    radius for radial grids                                                     
   RDEPT  =    1.856    core radius for aug-charge                                                  
                                                                                                    
   Atomic configuration                                                                             
    6 entries                                                                                       
     n  l   j            E        occ.                                                              
     1  0  0.50     -1511.1048   2.0000                                                             
     2  0  0.50      -108.1629   2.0000                                                             
     2  1  1.50       -69.6402   6.0000                                                             
     3  0  0.50        -7.7528   2.0000                                                             
     3  1  1.50        -2.7121   1.0000                                                             
     3  2  2.50        -2.7212   0.0000                                                             
   Description                                                                                      
     l       E           TYP  RCUT    TYP  RCUT                                                     
     0     -7.7528455     23  1.900                                                                 
     0     -3.3096929     23  1.900                                                                 
     1     -2.7120682     23  1.900                                                                 
     1     13.6058260     23  1.900                                                                 
     2     -2.7211652      7  1.900                                                                 
  local pseudopotential read in
  partial core-charges read in
  partial kinetic energy density read in
  atomic valenz-charges read in
  non local Contribution for L=            0  read in
    real space projection operators read in
  non local Contribution for L=            0  read in
    real space projection operators read in
  non local Contribution for L=            1  read in
    real space projection operators read in
  non local Contribution for L=            1  read in
    real space projection operators read in
    PAW grid and wavefunctions read in
 
   number of l-projection  operators is LMAX  =            4
   number of lm-projection operators is LMMAX =            8
 
 Optimization of the real space projectors (new method)

 maximal supplied QI-value         = 19.84
 optimisation between [QCUT,QGAM] = [ 10.12, 20.44] = [ 28.68,116.96] Ry 
 Optimized for a Real-space Cutoff    1.23 Angstroem

   l    n(q)    QCUT    max X(q) W(low)/X(q) W(high)/X(q)  e(spline) 
   0      7    10.119   176.870    0.49E-04    0.18E-03    0.39E-07
   0      7    10.119   105.762    0.46E-04    0.18E-03    0.38E-07
   1      7    10.119    55.370    0.30E-03    0.37E-03    0.12E-06
   1      7    10.119    20.208    0.27E-03    0.35E-03    0.11E-06
  PAW_PBE Al 04Jan2001                  :
 energy of atom  1       EATOM=  -53.5387
 kinetic energy error for atom=    0.0005 (will be added to EATOM!!)
 
 
 POSCAR: cif2pos.py
  positions in direct lattice
  No initial velocities read in

  MD-specific parameters
                MDALGO =   2
                 CNEXP =     9.000   14.000
 exchange correlation table for  LEXCH =        8
   RHO(1)=    0.500       N(1)  =     2000
   RHO(2)=  100.500       N(2)  =     4000

 VTST: version 4.1, (05/19/21)

 CHAIN: initializing optimizer
 
 OPT: Using VASP Dynamics algorithm
 CHAIN: Read ICHAIN             0
 
 POSCAR: cif2pos.py
  positions in direct lattice
  No initial velocities read in
 


--------------------------------------------------------------------------------------------------------


 ion  position               nearest neighbor table
   1  0.000  0.000  0.501-   5 2.86   9 2.86  13 2.86  25 2.86   4 2.86  12 2.86  28 2.86  36 2.86
                            27 2.86  11 2.86  35 2.86   3 2.86
   2  0.000  0.000  0.724-   6 2.86  10 2.86  14 2.86  26 2.86   4 2.86  12 2.86  28 2.86  36 2.86

   3  0.167  0.167  0.389-  37 2.84  17 2.86   7 2.86  15 2.86  13 2.86   5 2.86   1 2.86  27 2.86
                            11 2.86
   4  0.167  0.167  0.612-  17 2.86  18 2.86   8 2.86  16 2.86  13 2.86   5 2.86  14 2.86   6 2.86
                             1 2.86   2 2.86  12 2.86  28 2.86
   5  0.333  0.000  0.501-   1 2.86  17 2.86  29 2.86  28 2.86   4 2.86   3 2.86  27 2.86   8 2.86
                            32 2.86  31 2.86   7 2.86   9 2.86
   6  0.333  0.000  0.724-   2 2.86  18 2.86  30 2.86  28 2.86   4 2.86   8 2.86  32 2.86  10 2.86

   7  0.500  0.167  0.389-  37 2.81  11 2.86  19 2.86   3 2.86  21 2.86  17 2.86   9 2.86   5 2.86
                            31 2.86
   8  0.500  0.167  0.612-   4 2.86  12 2.86  20 2.86  17 2.86  21 2.86  18 2.86  22 2.86   5 2.86
                             9 2.86   6 2.86  10 2.86  32 2.86
   9  0.667  0.000  0.501-   1 2.86  21 2.86  33 2.86  12 2.86  36 2.86  35 2.86  11 2.86  32 2.86
                             8 2.86   7 2.86  31 2.86   5 2.86
  10  0.667  0.000  0.724-   2 2.86  22 2.86  34 2.86  12 2.86  36 2.86   8 2.86  32 2.86   6 2.86

  11  0.833  0.167  0.389-  21 2.86   7 2.86  23 2.86   9 2.86  13 2.86   1 2.86   3 2.86  35 2.86

  12  0.833  0.167  0.612-  21 2.86  22 2.86   8 2.86  24 2.86  13 2.86   9 2.86  14 2.86  10 2.86
                             1 2.86   2 2.86   4 2.86  36 2.86
  13  0.000  0.333  0.501-   1 2.86  17 2.86  21 2.86   4 2.86  12 2.86  11 2.86   3 2.86  16 2.86
                            24 2.86  23 2.86  15 2.86  25 2.86
  14  0.000  0.333  0.724-   2 2.86  18 2.86  22 2.86   4 2.86  12 2.86  16 2.86  24 2.86  26 2.86

  15  0.167  0.500  0.389-   3 2.86  19 2.86  27 2.86  17 2.86  29 2.86  13 2.86  25 2.86  23 2.86
                            37 2.96
  16  0.167  0.500  0.612-   4 2.86  20 2.86  28 2.86  17 2.86  29 2.86  18 2.86  30 2.86  25 2.86
                            13 2.86  26 2.86  14 2.86  24 2.86
  17  0.333  0.333  0.501-   4 2.86   3 2.86   5 2.86  13 2.86   8 2.86  16 2.86  15 2.86   7 2.86
                            20 2.86  19 2.86  21 2.86  29 2.86
  18  0.333  0.333  0.724-   4 2.86   6 2.86  14 2.86   8 2.86  16 2.86  20 2.86  22 2.86  30 2.86

  19  0.500  0.500  0.389-   7 2.86  15 2.86  23 2.86  31 2.86  17 2.86  29 2.86  21 2.86  33 2.86
                            37 2.93
  20  0.500  0.500  0.612-   8 2.86  16 2.86  24 2.86  32 2.86  17 2.86  29 2.86  21 2.86  33 2.86
                            30 2.86  18 2.86  22 2.86  34 2.86
  21  0.667  0.333  0.501-  12 2.86  11 2.86   9 2.86  13 2.86   8 2.86  24 2.86  23 2.86   7 2.86
                            20 2.86  19 2.86  17 2.86  33 2.86
  22  0.667  0.333  0.724-  12 2.86  10 2.86  14 2.86   8 2.86  24 2.86  20 2.86  18 2.86  34 2.86

  23  0.833  0.500  0.389-  11 2.86  19 2.86  35 2.86  33 2.86  21 2.86  13 2.86  25 2.86  15 2.86

  24  0.833  0.500  0.612-  12 2.86  20 2.86  36 2.86  33 2.86  21 2.86  34 2.86  22 2.86  25 2.86
                            13 2.86  26 2.86  14 2.86  16 2.86
  25  0.000  0.667  0.501-   1 2.86  29 2.86  33 2.86  28 2.86  36 2.86  35 2.86  27 2.86  16 2.86
                            24 2.86  23 2.86  15 2.86  13 2.86
  26  0.000  0.667  0.724-   2 2.86  30 2.86  34 2.86  28 2.86  36 2.86  16 2.86  24 2.86  14 2.86

  27  0.167  0.833  0.389-  29 2.86  15 2.86  31 2.86   5 2.86  25 2.86   1 2.86   3 2.86  35 2.86

  28  0.167  0.833  0.612-  29 2.86  30 2.86  16 2.86  32 2.86  25 2.86   5 2.86  26 2.86   6 2.86
                             1 2.86   2 2.86   4 2.86  36 2.86
  29  0.333  0.667  0.501-  28 2.86  27 2.86   5 2.86  25 2.86  16 2.86  32 2.86  31 2.86  15 2.86
                            20 2.86  19 2.86  17 2.86  33 2.86
  30  0.333  0.667  0.724-  28 2.86  26 2.86   6 2.86  16 2.86  32 2.86  20 2.86  18 2.86  34 2.86

  31  0.500  0.833  0.389-  19 2.86  27 2.86  35 2.86  33 2.86  29 2.86   9 2.86   5 2.86   7 2.86

  32  0.500  0.833  0.612-  20 2.86  28 2.86  36 2.86  33 2.86  29 2.86  34 2.86  30 2.86   9 2.86
                             5 2.86  10 2.86   6 2.86   8 2.86
  33  0.667  0.667  0.501-  36 2.86  35 2.86   9 2.86  25 2.86  24 2.86  32 2.86  31 2.86  23 2.86
                            20 2.86  19 2.86  21 2.86  29 2.86
  34  0.667  0.667  0.724-  36 2.86  26 2.86  10 2.86  32 2.86  24 2.86  20 2.86  22 2.86  30 2.86

  35  0.833  0.833  0.389-  33 2.86  31 2.86  23 2.86   9 2.86  25 2.86   1 2.86  11 2.86  27 2.86

  36  0.833  0.833  0.612-  33 2.86  34 2.86  24 2.86  32 2.86  25 2.86   9 2.86  26 2.86  10 2.86
                             1 2.86   2 2.86  28 2.86  12 2.86
  37  0.337  0.319  0.276-   7 2.81   3 2.84  19 2.93  15 2.96
 

IMPORTANT INFORMATION: All symmetrisations will be switched off!
NOSYMM: (Re-)initialisation of all symmetry stuff for point group C_1.


----------------------------------------------------------------------------------------

                                     Primitive cell                                     

  volume of cell :    1329.7070

  direct lattice vectors                    reciprocal lattice vectors
     8.567900000  0.000000000  0.000000000     0.116714714  0.000000000  0.000000000
     0.000000000  8.567900000  0.000000000     0.000000000  0.116714714  0.000000000
     0.000000000  0.000000000 18.113700000     0.000000000  0.000000000  0.055206832

  length of vectors
     8.567900000  8.567900000 18.113700000     0.116714714  0.116714714  0.055206832

  position of ions in fractional coordinates (direct lattice)
     0.000000000  0.000000000  0.500990000
     0.000000000  0.000000000  0.723970000
     0.166670000  0.166670000  0.389500000
     0.166670000  0.166670000  0.612480000
     0.333330000  0.000000000  0.500990000
     0.333330000  0.000000000  0.723970000
     0.500000000  0.166670000  0.389500000
     0.500000000  0.166670000  0.612480000
     0.666670000  0.000000000  0.500990000
     0.666670000  0.000000000  0.723970000
     0.833330000  0.166670000  0.389500000
     0.833330000  0.166670000  0.612480000
     0.000000000  0.333330000  0.500990000
     0.000000000  0.333330000  0.723970000
     0.166670000  0.500000000  0.389500000
     0.166670000  0.500000000  0.612480000
     0.333330000  0.333330000  0.500990000
     0.333330000  0.333330000  0.723970000
     0.500000000  0.500000000  0.389500000
     0.500000000  0.500000000  0.612480000
     0.666670000  0.333330000  0.500990000
     0.666670000  0.333330000  0.723970000
     0.833330000  0.500000000  0.389500000
     0.833330000  0.500000000  0.612480000
     0.000000000  0.666670000  0.500990000
     0.000000000  0.666670000  0.723970000
     0.166670000  0.833330000  0.389500000
     0.166670000  0.833330000  0.612480000
     0.333330000  0.666670000  0.500990000
     0.333330000  0.666670000  0.723970000
     0.500000000  0.833330000  0.389500000
     0.500000000  0.833330000  0.612480000
     0.666670000  0.666670000  0.500990000
     0.666670000  0.666670000  0.723970000
     0.833330000  0.833330000  0.389500000
     0.833330000  0.833330000  0.612480000
     0.336790000  0.318650000  0.276030000

  ion indices of the primitive-cell ions
   primitive index   ion index
                 1           1
                 2           2
                 3           3
                 4           4
                 5           5
                 6           6
                 7           7
                 8           8
                 9           9
                10          10
                11          11
                12          12
                13          13
                14          14
                15          15
                16          16
                17          17
                18          18
                19          19
                20          20
                21          21
                22          22
                23          23
                24          24
                25          25
                26          26
                27          27
                28          28
                29          29
                30          30
                31          31
                32          32
                33          33
                34          34
                35          35
                36          36
                37          37

----------------------------------------------------------------------------------------

 
 
 KPOINTS: K-Spacing Value to Generate K-Mesh: 0.04

Automatic generation of k-mesh.
 Grid dimensions read from file:
 generate k-points for:    1    1    1

 Generating k-lattice:

  Cartesian coordinates                     Fractional coordinates (reciprocal lattice)
     0.116714714  0.000000000  0.000000000     1.000000000  0.000000000  0.000000000
     0.000000000  0.116714714  0.000000000     0.000000000  1.000000000  0.000000000
     0.000000000  0.000000000  0.055206832     0.000000000  0.000000000  1.000000000

  Length of vectors
     0.116714714  0.116714714  0.055206832

  Shift w.r.t. Gamma in fractional coordinates (k-lattice)
     0.000000000  0.000000000  0.000000000

 
 Subroutine IBZKPT returns following result:
 ===========================================
 
 Found      1 irreducible k-points:
 
 Following reciprocal coordinates:
            Coordinates               Weight
  0.000000  0.000000  0.000000      1.000000
 
 Following cartesian coordinates:
            Coordinates               Weight
  0.000000  0.000000  0.000000      1.000000
 


--------------------------------------------------------------------------------------------------------




 Dimension of arrays:
   k-points           NKPTS =      1   k-points in BZ     NKDIM =      1   number of bands    NBANDS=    128
   number of dos      NEDOS =    301   number of ions     NIONS =     37
   non local maximal  LDIM  =      4   non local SUM 2l+1 LMDIM =      8
   total plane-waves  NPLWV = 158760
   max r-space proj   IRMAX =    972   max aug-charges    IRDMAX=   4846
   dimension x,y,z NGX =    42 NGY =   42 NGZ =   90
   dimension x,y,z NGXF=    84 NGYF=   84 NGZF=  180
   support grid    NGXF=    84 NGYF=   84 NGZF=  180
   ions per type =              37
   NGX,Y,Z   is equivalent  to a cutoff of   8.15,  8.15,  8.26 a.u.
   NGXF,Y,Z  is equivalent  to a cutoff of  16.30, 16.30, 16.52 a.u.

 SYSTEM =  AIMD-MLFF-ON-THE-FLY                    
 POSCAR =  cif2pos.py                              

 Startparameter for this run:
   NWRITE =      2    write-flag & timer
   PREC   = normal    normal or accurate (medium, high low for compatibility)
   ISTART =      0    job   : 0-new  1-cont  2-samecut
   ICHARG =      2    charge: 1-file 2-atom 10-const
   ISPIN  =      1    spin polarized calculation?
   LNONCOLLINEAR =      F non collinear calculations
   LSORBIT =      F    spin-orbit coupling
   INIWAV =      1    electr: 0-lowe 1-rand  2-diag
   LASPH  =      F    aspherical Exc in radial PAW
 Electronic Relaxation 1
   ENCUT  =  400.0 eV  29.40 Ry    5.42 a.u.  13.97 13.97 29.54*2*pi/ulx,y,z
   ENINI  =  400.0     initial cutoff
   ENAUG  =  291.1 eV  augmentation charge cutoff
   NELM   =     40;   NELMIN=  2; NELMDL= -5     # of ELM steps 
   EDIFF  = 0.1E-04   stopping-criterion for ELM
   LREAL  =      T    real-space projection
   NLSPLINE    = F    spline interpolate recip. space projectors
   LCOMPAT=      F    compatible to vasp.4.4
   GGA_COMPAT  = T    GGA compatible to vasp.4.4-vasp.4.6
   LMAXPAW     = -100 max onsite density
   LMAXMIX     =    2 max onsite mixed and CHGCAR
   VOSKOWN=      0    Vosko Wilk Nusair interpolation
   ROPT   =   -0.00050
 Ionic relaxation
   EDIFFG = 0.1E-03   stopping-criterion for IOM
   NSW    =   3000    number of steps for IOM
   NBLOCK =      1;   KBLOCK =   3000    inner block; outer block 
   IBRION =      0    ionic relax: 0-MD 1-quasi-New 2-CG
   NFREE  =      0    steps in history (QN), initial steepest desc. (CG)
   ISIF   =      2    stress and relaxation
   IWAVPR =     11    prediction:  0-non 1-charg 2-wave 3-comb
   ISYM   =      0    0-nonsym 1-usesym 2-fastsym
   LCORR  =      T    Harris-Foulkes like correction to forces

   POTIM  = 1.0000    time-step for ionic-motion
   TEIN   =  300.0    initial temperature
   TEBEG  =  300.0;   TEEND  = 300.0 temperature during run
   SMASS  =   0.03    Nose mass-parameter (am)
   estimated Nose-frequenzy (Omega)   =  0.16E+15 period in steps = 0.40E+02 mass=   0.166E-28a.u.
   SCALEE = 1.0000    scale energy and forces
   NPACO  =    256;   APACO  = 10.0  distance and # of slots for P.C.
   PSTRESS=    0.0 pullay stress

  Mass of Ions in am
   POMASS =  26.98
  Ionic Valenz
   ZVAL   =   3.00
  Atomic Wigner-Seitz radii
   RWIGS  =  -1.00
  virtual crystal weights 
   VCA    =   1.00
   NELECT =     111.0000    total number of electrons
   NUPDOWN=      -1.0000    fix difference up-down

 DOS related values:
   EMIN   =  10.00;   EMAX   =-10.00  energy-range for DOS
   EFERMI =   0.00;   METHOD = LEGACY      
   ISMEAR =     0;   SIGMA  =   0.10  broadening in eV -4-tet -1-fermi 0-gaus

 Electronic relaxation 2 (details)
   IALGO  =     38    algorithm
   LDIAG  =      T    sub-space diagonalisation (order eigenvalues)
   LSUBROT=      F    optimize rotation matrix (better conditioning)
   TURBO    =      0    0=normal 1=particle mesh
   IRESTART =      0    0=no restart 2=restart with 2 vectors
   NREBOOT  =      0    no. of reboots
   NMIN     =      0    reboot dimension
   EREF     =   0.00    reference energy to select bands
   IMIX   =      4    mixing-type and parameters
     AMIX     =   0.40;   BMIX     =  1.00
     AMIX_MAG =   1.60;   BMIX_MAG =  1.00
     AMIN     =   0.10
     WC   =   100.;   INIMIX=   1;  MIXPRE=   1;  MAXMIX= -45

 Intra band minimization:
   WEIMIN = 0.0010     energy-eigenvalue tresh-hold
   EBREAK =  0.20E-07  absolut break condition
   DEPER  =   0.30     relativ break condition  

   TIME   =   0.40     timestep for ELM

  volume/ion in A,a.u.               =      35.94       242.52
  Fermi-wavevector in a.u.,A,eV,Ry     =   0.715479  1.352060  6.964970  0.511911
  Thomas-Fermi vector in A             =   1.803651
 
 Write flags
   LWAVE        =      F    write WAVECAR
   LDOWNSAMPLE  =      F    k-point downsampling of WAVECAR
   LCHARG       =      F    write CHGCAR
   LVTOT        =      F    write LOCPOT, total local potential
   LVHAR        =      F    write LOCPOT, Hartree potential only
   LELF         =      F    write electronic localiz. function (ELF)
   LORBIT       =      0    0 simple, 1 ext, 2 COOP (PROOUT), +10 PAW based schemes


 Dipole corrections
   LMONO  =      F    monopole corrections only (constant potential shift)
   LDIPOL =      F    correct potential (dipole corrections)
   IDIPOL =      0    1-x, 2-y, 3-z, 4-all directions 
   EPSILON=  1.0000000 bulk dielectric constant

 Exchange correlation treatment:
   GGA     =    PE    GGA type
   LEXCH   =     8    internal setting for exchange type
   LIBXC   =     F    Libxc                    
   VOSKOWN =     0    Vosko Wilk Nusair interpolation
   LHFCALC =     F    Hartree Fock is set to
   LHFONE  =     F    Hartree Fock one center treatment
   AEXX    =    0.0000 exact exchange contribution

 Linear response parameters
   LEPSILON=     F    determine dielectric tensor
   LRPA    =     F    only Hartree local field effects (RPA)
   LNABLA  =     F    use nabla operator in PAW spheres
   LVEL    =     F    velocity operator in full k-point grid
   CSHIFT  =0.1000    complex shift for real part using Kramers Kronig
   OMEGAMAX=  -1.0    maximum frequency
   DEG_THRESHOLD= 0.2000000E-02 threshold for treating states as degnerate
   RTIME   =   -0.100 relaxation time in fs
  (WPLASMAI=    0.000 imaginary part of plasma frequency in eV, 0.658/RTIME)
   DFIELD  = 0.0000000 0.0000000 0.0000000 field for delta impulse in time
 
  Optional k-point grid parameters
   LKPOINTS_OPT  =     F    use optional k-point grid
   KPOINTS_OPT_MODE=     1    mode for optional k-point grid
 
 Orbital magnetization related:
   ORBITALMAG=     F  switch on orbital magnetization
   LCHIMAG   =     F  perturbation theory with respect to B field
   DQ        =  0.001000  dq finite difference perturbation B field
   LLRAUG    =     F  two centre corrections for induced B field
   LBONE     =     F  B-component reconstruction in AE one-centre
   LVGVCALC  =     T  calculate vGv susceptibility
   LVGVAPPL  =     F  apply vGv susceptibility instead of pGv for G=0

 Random number generation:
   RANDOM_GENERATOR = DEFAULT
   PCG_SEED         = not used


--------------------------------------------------------------------------------------------------------


 molecular dynamics for ions
   using nose mass (canonical ensemble)
 charge density and potential will be updated during run
 non-spin polarized calculation
 Variant of blocked Davidson
 Davidson routine will perform the subspace rotation
 perform sub-space diagonalisation
    after iterative eigenvector-optimisation
 modified Broyden-mixing scheme, WC =      100.0
 initial mixing is a Kerker type mixing with AMIX =  0.4000 and BMIX =      1.0000
 Hartree-type preconditioning will be used
 using additional bands            72
 real space projection scheme for non local part
 use partial core corrections
 calculate Harris-corrections to forces 
   (improved forces if not selfconsistent)
 use gradient corrections 
 use of overlap-Matrix (Vanderbilt PP)
 Gauss-broadening in eV      SIGMA  =   0.10


--------------------------------------------------------------------------------------------------------


  energy-cutoff  :      400.00
  volume of cell :     1329.71
      direct lattice vectors                 reciprocal lattice vectors
     8.567900000  0.000000000  0.000000000     0.116714714  0.000000000  0.000000000
     0.000000000  8.567900000  0.000000000     0.000000000  0.116714714  0.000000000
     0.000000000  0.000000000 18.113700000     0.000000000  0.000000000  0.055206832

  length of vectors
     8.567900000  8.567900000 18.113700000     0.116714714  0.116714714  0.055206832


 
 k-points in units of 2pi/SCALE and weight: K-Spacing Value to Generate K-Mesh: 0.04
   0.00000000  0.00000000  0.00000000       1.000
 
 k-points in reciprocal lattice and weights: K-Spacing Value to Generate K-Mesh: 0.04
   0.00000000  0.00000000  0.00000000       1.000
 
 position of ions in fractional coordinates (direct lattice) 
   0.00000000  0.00000000  0.50099000
   0.00000000  0.00000000  0.72397000
   0.16667000  0.16667000  0.38950000
   0.16667000  0.16667000  0.61248000
   0.33333000  0.00000000  0.50099000
   0.33333000  0.00000000  0.72397000
   0.50000000  0.16667000  0.38950000
   0.50000000  0.16667000  0.61248000
   0.66667000  0.00000000  0.50099000
   0.66667000  0.00000000  0.72397000
   0.83333000  0.16667000  0.38950000
   0.83333000  0.16667000  0.61248000
   0.00000000  0.33333000  0.50099000
   0.00000000  0.33333000  0.72397000
   0.16667000  0.50000000  0.38950000
   0.16667000  0.50000000  0.61248000
   0.33333000  0.33333000  0.50099000
   0.33333000  0.33333000  0.72397000
   0.50000000  0.50000000  0.38950000
   0.50000000  0.50000000  0.61248000
   0.66667000  0.33333000  0.50099000
   0.66667000  0.33333000  0.72397000
   0.83333000  0.50000000  0.38950000
   0.83333000  0.50000000  0.61248000
   0.00000000  0.66667000  0.50099000
   0.00000000  0.66667000  0.72397000
   0.16667000  0.83333000  0.38950000
   0.16667000  0.83333000  0.61248000
   0.33333000  0.66667000  0.50099000
   0.33333000  0.66667000  0.72397000
   0.50000000  0.83333000  0.38950000
   0.50000000  0.83333000  0.61248000
   0.66667000  0.66667000  0.50099000
   0.66667000  0.66667000  0.72397000
   0.83333000  0.83333000  0.38950000
   0.83333000  0.83333000  0.61248000
   0.33679000  0.31865000  0.27603000
 
 position of ions in cartesian coordinates  (Angst):
   0.00000000  0.00000000  9.07478256
   0.00000000  0.00000000 13.11377539
   1.42801189  1.42801189  7.05528615
   1.42801189  1.42801189 11.09427898
   2.85593811  0.00000000  9.07478256
   2.85593811  0.00000000 13.11377539
   4.28395000  1.42801189  7.05528615
   4.28395000  1.42801189 11.09427898
   5.71196189  0.00000000  9.07478256
   5.71196189  0.00000000 13.11377539
   7.13988811  1.42801189  7.05528615
   7.13988811  1.42801189 11.09427898
   0.00000000  2.85593811  9.07478256
   0.00000000  2.85593811 13.11377539
   1.42801189  4.28395000  7.05528615
   1.42801189  4.28395000 11.09427898
   2.85593811  2.85593811  9.07478256
   2.85593811  2.85593811 13.11377539
   4.28395000  4.28395000  7.05528615
   4.28395000  4.28395000 11.09427898
   5.71196189  2.85593811  9.07478256
   5.71196189  2.85593811 13.11377539
   7.13988811  4.28395000  7.05528615
   7.13988811  4.28395000 11.09427898
   0.00000000  5.71196189  9.07478256
   0.00000000  5.71196189 13.11377539
   1.42801189  7.13988811  7.05528615
   1.42801189  7.13988811 11.09427898
   2.85593811  5.71196189  9.07478256
   2.85593811  5.71196189 13.11377539
   4.28395000  7.13988811  7.05528615
   4.28395000  7.13988811 11.09427898
   5.71196189  5.71196189  9.07478256
   5.71196189  5.71196189 13.11377539
   7.13988811  7.13988811  7.05528615
   7.13988811  7.13988811 11.09427898
   2.88558304  2.73016133  4.99992461
 


--------------------------------------------------------------------------------------------------------


 k-point   1 :   0.0000 0.0000 0.0000  plane waves:   24091

 maximum and minimum number of plane-waves per node :     24091    24091

 maximum number of plane-waves:     24091
 maximum index in each direction: 
   IXMAX=   13   IYMAX=   13   IZMAX=   29
   IXMIN=  -13   IYMIN=  -13   IZMIN=  -29


 serial   3D FFT for wavefunctions
 parallel 3D FFT for charge:
    minimum data exchange during FFTs selected (reduces bandwidth)


 total amount of memory used by VASP MPI-rank0    41722. kBytes
=======================================================================

   base      :      30000. kBytes
   nonlr-proj:       2941. kBytes
   fftplans  :       1166. kBytes
   grid      :       7109. kBytes
   one-center:        113. kBytes
   wavefun   :        393. kBytes
 
     INWAV:  cpu time      0.0001: real time      0.0003
 Broyden mixing: mesh for mixing (old mesh)
   NGX = 27   NGY = 27   NGZ = 59
  (NGX  = 84   NGY  = 84   NGZ  =180)
  gives a total of  43011 points

 initial charge density was supplied:
 charge density of overlapping atoms calculated
 number of electron     111.0000000 magnetization 
 keeping initial charge density in first step


--------------------------------------------------------------------------------------------------------


 Maximum index for non-local projection operator           908
 Maximum index for augmentation-charges           335 (set IRDMAX)


--------------------------------------------------------------------------------------------------------


 First call to EWALD:  gamma=   0.161
 Maximum number of real-space cells 3x 3x 2
 Maximum number of reciprocal cells 2x 2x 4

    FEWALD:  cpu time      0.0010: real time      0.0010


--------------------------------------- Ionic step        1  -------------------------------------------



  ML FORCE on cell =-STRESS in cart. coord. units (eV/cell)
  Direction    XX          YY          ZZ          XY          YZ          ZX
  --------------------------------------------------------------------------------------
  Total:      0.00000     0.00000     0.00000     0.00000     0.00000     0.00000
  in kB       0.00000     0.00000     0.00000     0.00000     0.00000     0.00000
  external pressure =        0.00 kB  Pullay stress =        0.00 kB

  kinetic pressure (ideal gas correction) =      1.12 kB
  total pressure  =      1.12 kB
  Total+kin.     0.962       1.150       1.252       0.335       0.088      -0.146
  volume of cell :     1329.71
      direct lattice vectors                 reciprocal lattice vectors
     8.567900000  0.000000000  0.000000000     0.116714714  0.000000000  0.000000000
     0.000000000  8.567900000  0.000000000     0.000000000  0.116714714  0.000000000
     0.000000000  0.000000000 18.113700000     0.000000000  0.000000000  0.055206832

  length of vectors
     8.567900000  8.567900000 18.113700000     0.116714714  0.116714714  0.055206832


  POSITION                                       TOTAL-FORCE (eV/Angst) (ML)
 -----------------------------------------------------------------------------------
      0.00000      0.00000      9.07478         0.000000      0.000000      0.000000
      0.00000      0.00000     13.11378         0.000000      0.000000      0.000000
      1.42801      1.42801      7.05529         0.000000      0.000000      0.000000
      1.42801      1.42801     11.09428         0.000000      0.000000      0.000000
      2.85594      0.00000      9.07478         0.000000      0.000000      0.000000
      2.85594      0.00000     13.11378         0.000000      0.000000      0.000000
      4.28395      1.42801      7.05529         0.000000      0.000000      0.000000
      4.28395      1.42801     11.09428         0.000000      0.000000      0.000000
      5.71196      0.00000      9.07478         0.000000      0.000000      0.000000
      5.71196      0.00000     13.11378         0.000000      0.000000      0.000000
      7.13989      1.42801      7.05529         0.000000      0.000000      0.000000
      7.13989      1.42801     11.09428         0.000000      0.000000      0.000000
      0.00000      2.85594      9.07478         0.000000      0.000000      0.000000
      0.00000      2.85594     13.11378         0.000000      0.000000      0.000000
      1.42801      4.28395      7.05529         0.000000      0.000000      0.000000
      1.42801      4.28395     11.09428         0.000000      0.000000      0.000000
      2.85594      2.85594      9.07478         0.000000      0.000000      0.000000
      2.85594      2.85594     13.11378         0.000000      0.000000      0.000000
      4.28395      4.28395      7.05529         0.000000      0.000000      0.000000
      4.28395      4.28395     11.09428         0.000000      0.000000      0.000000
      5.71196      2.85594      9.07478         0.000000      0.000000      0.000000
      5.71196      2.85594     13.11378         0.000000      0.000000      0.000000
      7.13989      4.28395      7.05529         0.000000      0.000000      0.000000
      7.13989      4.28395     11.09428         0.000000      0.000000      0.000000
      0.00000      5.71196      9.07478         0.000000      0.000000      0.000000
      0.00000      5.71196     13.11378         0.000000      0.000000      0.000000
      1.42801      7.13989      7.05529         0.000000      0.000000      0.000000
      1.42801      7.13989     11.09428         0.000000      0.000000      0.000000
      2.85594      5.71196      9.07478         0.000000      0.000000      0.000000
      2.85594      5.71196     13.11378         0.000000      0.000000      0.000000
      4.28395      7.13989      7.05529         0.000000      0.000000      0.000000
      4.28395      7.13989     11.09428         0.000000      0.000000      0.000000
      5.71196      5.71196      9.07478         0.000000      0.000000      0.000000
      5.71196      5.71196     13.11378         0.000000      0.000000      0.000000
      7.13989      7.13989      7.05529         0.000000      0.000000      0.000000
      7.13989      7.13989     11.09428         0.000000      0.000000      0.000000
      2.88558      2.73016      4.99992         0.000000      0.000000      0.000000
 -----------------------------------------------------------------------------------
    total drift:                                0.000000      0.000000      0.000000


--------------------------------------------------------------------------------------------------------



  ML FREE ENERGIE OF THE ION-ELECTRON SYSTEM (eV)
  ---------------------------------------------------
  free  energy ML TOTEN  =         0.00000000 eV

  ML energy  without entropy=        0.00000000  ML energy(sigma->0) =        0.00000000

      MLFF:  cpu time      0.0045: real time      0.0045


--------------------------------------- Iteration      1(   1)  ---------------------------------------


    POTLOK:  cpu time      0.0260: real time      0.0260
    SETDIJ:  cpu time      0.0021: real time      0.0021
     EDDAV:  cpu time      0.5575: real time      0.3983
       DOS:  cpu time      0.0014: real time      0.0014
    --------------------------------------------
      LOOP:  cpu time      0.5869: real time      0.4278

 eigenvalue-minimisations  :   256
 total energy-change (2. order) : 0.7772304E+02  (-0.3486384E+04)
 number of electron     111.0000000 magnetization 
 augmentation part      111.0000000 magnetization 

 Free energy of the ion-electron system (eV)
  ---------------------------------------------------
  alpha Z        PSCENC =        -3.45806318
  Ewald energy   TEWEN  =      4207.66579448
  -Hartree energ DENC   =     -6095.20777570
  -exchange      EXHF   =         0.00000000
  -V(xc)+E(xc)   XCENC  =      -980.83314476
  PAW double counting   =      2449.40581366    -1267.08796800
  entropy T*S    EENTRO =        -0.07427891
  eigenvalues    EBANDS =      -213.59904347
  atomic energy  EATOM  =      1980.91170990
  Solvation  Ediel_sol  =         0.00000000
  ---------------------------------------------------
  free energy    TOTEN  =        77.72304402 eV

  energy without entropy =       77.79732293  energy(sigma->0) =       77.76018347


--------------------------------------------------------------------------------------------------------




--------------------------------------- Iteration      1(   2)  ---------------------------------------


     EDDAV:  cpu time      1.0154: real time      0.7196
       DOS:  cpu time      0.0006: real time      0.0006
    --------------------------------------------
      LOOP:  cpu time      1.0160: real time      0.7202

 eigenvalue-minimisations  :   384
 total energy-change (2. order) :-0.2057394E+03  (-0.2057097E+03)
 number of electron     111.0000000 magnetization 
 augmentation part      111.0000000 magnetization 

 Free energy of the ion-electron system (eV)
  ---------------------------------------------------
  alpha Z        PSCENC =        -3.45806318
  Ewald energy   TEWEN  =      4207.66579448
  -Hartree energ DENC   =     -6095.20777570
  -exchange      EXHF   =         0.00000000
  -V(xc)+E(xc)   XCENC  =      -980.83314476
  PAW double counting   =      2449.40581366    -1267.08796800
  entropy T*S    EENTRO =        -0.09331536
  eigenvalues    EBANDS =      -419.31943665
  atomic energy  EATOM  =      1980.91170990
  Solvation  Ediel_sol  =         0.00000000
  ---------------------------------------------------
  free energy    TOTEN  =      -128.01638562 eV

  energy without entropy =     -127.92307026  energy(sigma->0) =     -127.96972794


--------------------------------------------------------------------------------------------------------




--------------------------------------- Iteration      1(   3)  ---------------------------------------


     EDDAV:  cpu time      1.0560: real time      0.7597
       DOS:  cpu time      0.0004: real time      0.0004
    --------------------------------------------
      LOOP:  cpu time      1.0564: real time      0.7601

 eigenvalue-minimisations  :   384
 total energy-change (2. order) :-0.2130944E+01  (-0.2130910E+01)
 number of electron     111.0000000 magnetization 
 augmentation part      111.0000000 magnetization 

 Free energy of the ion-electron system (eV)
  ---------------------------------------------------
  alpha Z        PSCENC =        -3.45806318
  Ewald energy   TEWEN  =      4207.66579448
  -Hartree energ DENC   =     -6095.20777570
  -exchange      EXHF   =         0.00000000
  -V(xc)+E(xc)   XCENC  =      -980.83314476
  PAW double counting   =      2449.40581366    -1267.08796800
  entropy T*S    EENTRO =        -0.09278014
  eigenvalues    EBANDS =      -421.45091557
  atomic energy  EATOM  =      1980.91170990
  Solvation  Ediel_sol  =         0.00000000
  ---------------------------------------------------
  free energy    TOTEN  =      -130.14732931 eV

  energy without entropy =     -130.05454917  energy(sigma->0) =     -130.10093924


--------------------------------------------------------------------------------------------------------




--------------------------------------- Iteration      1(   4)  ---------------------------------------


     EDDAV:  cpu time      1.8129: real time      1.2569
       DOS:  cpu time      0.0006: real time      0.0006
    --------------------------------------------
      LOOP:  cpu time      1.8135: real time      1.2575

 eigenvalue-minimisations  :   512
 total energy-change (2. order) :-0.1745813E-01  (-0.1745813E-01)
 number of electron     111.0000000 magnetization 
 augmentation part      111.0000000 magnetization 

 Free energy of the ion-electron system (eV)
  ---------------------------------------------------
  alpha Z        PSCENC =        -3.45806318
  Ewald energy   TEWEN  =      4207.66579448
  -Hartree energ DENC   =     -6095.20777570
  -exchange      EXHF   =         0.00000000
  -V(xc)+E(xc)   XCENC  =      -980.83314476
  PAW double counting   =      2449.40581366    -1267.08796800
  entropy T*S    EENTRO =        -0.09278121
  eigenvalues    EBANDS =      -421.46837262
  atomic energy  EATOM  =      1980.91170990
  Solvation  Ediel_sol  =         0.00000000
  ---------------------------------------------------
  free energy    TOTEN  =      -130.16478744 eV

  energy without entropy =     -130.07200623  energy(sigma->0) =     -130.11839683


--------------------------------------------------------------------------------------------------------




--------------------------------------- Iteration      1(   5)  ---------------------------------------


     EDDAV:  cpu time      0.5522: real time      0.4123
       DOS:  cpu time      0.0005: real time      0.0005
    CHARGE:  cpu time      0.0196: real time      0.0196
    MIXING:  cpu time      0.0009: real time      0.0010
    --------------------------------------------
      LOOP:  cpu time      0.5732: real time      0.4333

 eigenvalue-minimisations  :   256
 total energy-change (2. order) :-0.9947454E-04  (-0.9947455E-04)
 number of electron     110.9999975 magnetization 
 augmentation part       -1.4278468 magnetization 

 Broyden mixing:
  rms(total) = 0.10397E+01    rms(broyden)= 0.10397E+01
  rms(prec ) = 0.19128E+01
  weight for this iteration     100.00

 Free energy of the ion-electron system (eV)
  ---------------------------------------------------
  alpha Z        PSCENC =        -3.45806318
  Ewald energy   TEWEN  =      4207.66579448
  -Hartree energ DENC   =     -6095.20777570
  -exchange      EXHF   =         0.00000000
  -V(xc)+E(xc)   XCENC  =      -980.83314476
  PAW double counting   =      2449.40581366    -1267.08796800
  entropy T*S    EENTRO =        -0.09278121
  eigenvalues    EBANDS =      -421.46847209
  atomic energy  EATOM  =      1980.91170990
  Solvation  Ediel_sol  =         0.00000000
  ---------------------------------------------------
  free energy    TOTEN  =      -130.16488691 eV

  energy without entropy =     -130.07210570  energy(sigma->0) =     -130.11849630


--------------------------------------------------------------------------------------------------------




--------------------------------------- Iteration      1(   6)  ---------------------------------------


    POTLOK:  cpu time      0.0224: real time      0.0354
    SETDIJ:  cpu time      0.0013: real time      0.0013
     EDDAV:  cpu time      1.8603: real time      1.2807
       DOS:  cpu time      0.0005: real time      0.0005
    CHARGE:  cpu time      0.0184: real time      0.0184
    MIXING:  cpu time      0.0010: real time      0.0010
    --------------------------------------------
      LOOP:  cpu time      1.9040: real time      1.3373

 eigenvalue-minimisations  :   512
 total energy-change (2. order) : 0.6340541E+01  (-0.1572033E+02)
 number of electron     110.9999979 magnetization 
 augmentation part       -1.3420985 magnetization 

 Broyden mixing:
  rms(total) = 0.72499E+00    rms(broyden)= 0.72499E+00
  rms(prec ) = 0.12244E+01
  weight for this iteration     100.00

 eigenvalues of (default mixing * dielectric matrix)
  average eigenvalue GAMMA=   0.8194
  0.8194

 Free energy of the ion-electron system (eV)
  ---------------------------------------------------
  alpha Z        PSCENC =        -3.45806318
  Ewald energy   TEWEN  =      4207.66579448
  -Hartree energ DENC   =     -6211.79777867
  -exchange      EXHF   =         0.00000000
  -V(xc)+E(xc)   XCENC  =      -979.39606867
  PAW double counting   =      3377.43033655    -2195.22605932
  entropy T*S    EENTRO =        -0.17942630
  eigenvalues    EBANDS =      -299.77479077
  atomic energy  EATOM  =      1980.91170990
  Solvation  Ediel_sol  =         0.00000000
  ---------------------------------------------------
  free energy    TOTEN  =      -123.82434600 eV

  energy without entropy =     -123.64491970  energy(sigma->0) =     -123.73463285


--------------------------------------------------------------------------------------------------------




--------------------------------------- Iteration      1(   7)  ---------------------------------------


    POTLOK:  cpu time      0.0236: real time      0.0354
    SETDIJ:  cpu time      0.0013: real time      0.0013
     EDDAV:  cpu time      0.5248: real time      0.3743
       DOS:  cpu time      0.0005: real time      0.0005
    CHARGE:  cpu time      0.0156: real time      0.0156
    MIXING:  cpu time      0.0009: real time      0.0009
    --------------------------------------------
      LOOP:  cpu time      0.5666: real time      0.4280

 eigenvalue-minimisations  :   256
 total energy-change (2. order) : 0.3367544E+01  (-0.2883885E+01)
 number of electron     110.9999978 magnetization 
 augmentation part       -1.3280184 magnetization 

 Broyden mixing:
  rms(total) = 0.39613E+00    rms(broyden)= 0.39613E+00
  rms(prec ) = 0.46695E+00
  weight for this iteration     100.00

 eigenvalues of (default mixing * dielectric matrix)
  average eigenvalue GAMMA=   1.3123
  2.0111  0.6135

 Free energy of the ion-electron system (eV)
  ---------------------------------------------------
  alpha Z        PSCENC =        -3.45806318
  Ewald energy   TEWEN  =      4207.66579448
  -Hartree energ DENC   =     -6184.68132645
  -exchange      EXHF   =         0.00000000
  -V(xc)+E(xc)   XCENC  =      -978.68597233
  PAW double counting   =      3812.31657236    -2630.13068152
  entropy T*S    EENTRO =        -0.20905644
  eigenvalues    EBANDS =      -324.18577842
  atomic energy  EATOM  =      1980.91170990
  Solvation  Ediel_sol  =         0.00000000
  ---------------------------------------------------
  free energy    TOTEN  =      -120.45680160 eV

  energy without entropy =     -120.24774517  energy(sigma->0) =     -120.35227339


--------------------------------------------------------------------------------------------------------




--------------------------------------- Iteration      1(   8)  ---------------------------------------


    POTLOK:  cpu time      0.0225: real time      0.0354
    SETDIJ:  cpu time      0.0013: real time      0.0013
     EDDAV:  cpu time      1.0504: real time      0.7248
       DOS:  cpu time      0.0005: real time      0.0005
    CHARGE:  cpu time      0.0156: real time      0.0156
    MIXING:  cpu time      0.0005: real time      0.0005
    --------------------------------------------
      LOOP:  cpu time      1.0907: real time      0.7780

 eigenvalue-minimisations  :   384
 total energy-change (2. order) : 0.2434240E+00  (-0.3112102E+00)
 number of electron     110.9999978 magnetization 
 augmentation part       -1.3732861 magnetization 

 Broyden mixing:
  rms(total) = 0.16033E+00    rms(broyden)= 0.16033E+00
  rms(prec ) = 0.32655E+00
  weight for this iteration     100.00

 eigenvalues of (default mixing * dielectric matrix)
  average eigenvalue GAMMA=   1.1503
  0.5934  1.0672  1.7901

 Free energy of the ion-electron system (eV)
  ---------------------------------------------------
  alpha Z        PSCENC =        -3.45806318
  Ewald energy   TEWEN  =      4207.66579448
  -Hartree energ DENC   =     -6207.00972158
  -exchange      EXHF   =         0.00000000
  -V(xc)+E(xc)   XCENC  =      -977.11378390
  PAW double counting   =      4774.35233586    -3592.19311580
  entropy T*S    EENTRO =        -0.35015990
  eigenvalues    EBANDS =      -303.01837346
  atomic energy  EATOM  =      1980.91170990
  Solvation  Ediel_sol  =         0.00000000
  ---------------------------------------------------
  free energy    TOTEN  =      -120.21337758 eV

  energy without entropy =     -119.86321769  energy(sigma->0) =     -120.03829764


--------------------------------------------------------------------------------------------------------




--------------------------------------- Iteration      1(   9)  ---------------------------------------


    POTLOK:  cpu time      0.0235: real time      0.0348
    SETDIJ:  cpu time      0.0014: real time      0.0014
     EDDAV:  cpu time      1.9591: real time      1.3219
       DOS:  cpu time      0.0005: real time      0.0005
    CHARGE:  cpu time      0.0155: real time      0.0155
    MIXING:  cpu time      0.0005: real time      0.0005
    --------------------------------------------
      LOOP:  cpu time      2.0005: real time      1.3746

 eigenvalue-minimisations  :   512
 total energy-change (2. order) : 0.9317120E-01  (-0.2680318E+00)
 number of electron     110.9999978 magnetization 
 augmentation part       -1.3652153 magnetization 

 Broyden mixing:
  rms(total) = 0.11030E+00    rms(broyden)= 0.11030E+00
  rms(prec ) = 0.21079E+00
  weight for this iteration     100.00

 eigenvalues of (default mixing * dielectric matrix)
  average eigenvalue GAMMA=   1.0430
  1.5970  1.5970  0.5830  0.3952

 Free energy of the ion-electron system (eV)
  ---------------------------------------------------
  alpha Z        PSCENC =        -3.45806318
  Ewald energy   TEWEN  =      4207.66579448
  -Hartree energ DENC   =     -6210.73435255
  -exchange      EXHF   =         0.00000000
  -V(xc)+E(xc)   XCENC  =      -976.80937673
  PAW double counting   =      4891.44115216    -3709.29977848
  entropy T*S    EENTRO =        -0.30895506
  eigenvalues    EBANDS =      -299.52833693
  atomic energy  EATOM  =      1980.91170990
  Solvation  Ediel_sol  =         0.00000000
  ---------------------------------------------------
  free energy    TOTEN  =      -120.12020638 eV

  energy without entropy =     -119.81125132  energy(sigma->0) =     -119.96572885


--------------------------------------------------------------------------------------------------------




--------------------------------------- Iteration      1(  10)  ---------------------------------------


    POTLOK:  cpu time      0.0232: real time      0.0355
    SETDIJ:  cpu time      0.0013: real time      0.0013
     EDDAV:  cpu time      1.0613: real time      0.7299
       DOS:  cpu time      0.0005: real time      0.0005
    CHARGE:  cpu time      0.0157: real time      0.0157
    MIXING:  cpu time      0.0005: real time      0.0005
    --------------------------------------------
      LOOP:  cpu time      1.1026: real time      0.7835

 eigenvalue-minimisations  :   384
 total energy-change (2. order) : 0.5592922E-01  (-0.5492482E-01)
 number of electron     110.9999978 magnetization 
 augmentation part       -1.3654004 magnetization 

 Broyden mixing:
  rms(total) = 0.58094E-01    rms(broyden)= 0.58094E-01
  rms(prec ) = 0.81588E-01
  weight for this iteration     100.00

 eigenvalues of (default mixing * dielectric matrix)
  average eigenvalue GAMMA=   1.1350
  2.3820  1.2984  1.0323  0.6170  0.3450

 Free energy of the ion-electron system (eV)
  ---------------------------------------------------
  alpha Z        PSCENC =        -3.45806318
  Ewald energy   TEWEN  =      4207.66579448
  -Hartree energ DENC   =     -6213.42251016
  -exchange      EXHF   =         0.00000000
  -V(xc)+E(xc)   XCENC  =      -976.52431073
  PAW double counting   =      4908.58059559    -3726.46474703
  entropy T*S    EENTRO =        -0.28104736
  eigenvalues    EBANDS =      -297.07169867
  atomic energy  EATOM  =      1980.91170990
  Solvation  Ediel_sol  =         0.00000000
  ---------------------------------------------------
  free energy    TOTEN  =      -120.06427716 eV

  energy without entropy =     -119.78322980  energy(sigma->0) =     -119.92375348


--------------------------------------------------------------------------------------------------------




--------------------------------------- Iteration      1(  11)  ---------------------------------------


    POTLOK:  cpu time      0.0242: real time      0.0353
    SETDIJ:  cpu time      0.0013: real time      0.0013
     EDDAV:  cpu time      1.1197: real time      0.7676
       DOS:  cpu time      0.0005: real time      0.0005
    CHARGE:  cpu time      0.0179: real time      0.0179
    MIXING:  cpu time      0.0004: real time      0.0004
    --------------------------------------------
      LOOP:  cpu time      1.1642: real time      0.8231

 eigenvalue-minimisations  :   384
 total energy-change (2. order) : 0.2354581E-01  (-0.6056165E-02)
 number of electron     110.9999978 magnetization 
 augmentation part       -1.3755963 magnetization 

 Broyden mixing:
  rms(total) = 0.34372E-01    rms(broyden)= 0.34372E-01
  rms(prec ) = 0.48829E-01
  weight for this iteration     100.00

 eigenvalues of (default mixing * dielectric matrix)
  average eigenvalue GAMMA=   1.1807
  2.1614  2.1614  0.9053  0.9053  0.6073  0.3432

 Free energy of the ion-electron system (eV)
  ---------------------------------------------------
  alpha Z        PSCENC =        -3.45806318
  Ewald energy   TEWEN  =      4207.66579448
  -Hartree energ DENC   =     -6220.47550211
  -exchange      EXHF   =         0.00000000
  -V(xc)+E(xc)   XCENC  =      -976.08037246
  PAW double counting   =      5014.33688030    -3832.24519846
  entropy T*S    EENTRO =        -0.31278553
  eigenvalues    EBANDS =      -290.38319430
  atomic energy  EATOM  =      1980.91170990
  Solvation  Ediel_sol  =         0.00000000
  ---------------------------------------------------
  free energy    TOTEN  =      -120.04073135 eV

  energy without entropy =     -119.72794582  energy(sigma->0) =     -119.88433859


--------------------------------------------------------------------------------------------------------




--------------------------------------- Iteration      1(  12)  ---------------------------------------


    POTLOK:  cpu time      0.0241: real time      0.0349
    SETDIJ:  cpu time      0.0014: real time      0.0014
     EDDAV:  cpu time      1.1647: real time      0.7940
       DOS:  cpu time      0.0005: real time      0.0005
    CHARGE:  cpu time      0.0170: real time      0.0170
    MIXING:  cpu time      0.0007: real time      0.0007
    --------------------------------------------
      LOOP:  cpu time      1.2084: real time      0.8485

 eigenvalue-minimisations  :   384
 total energy-change (2. order) : 0.4922205E-02  (-0.1326569E-02)
 number of electron     110.9999978 magnetization 
 augmentation part       -1.3735868 magnetization 

 Broyden mixing:
  rms(total) = 0.18727E-01    rms(broyden)= 0.18727E-01
  rms(prec ) = 0.31187E-01
  weight for this iteration     100.00

 eigenvalues of (default mixing * dielectric matrix)
  average eigenvalue GAMMA=   1.2714
  2.5737  2.5737  1.0937  0.8435  0.8435  0.6248  0.3471

 Free energy of the ion-electron system (eV)
  ---------------------------------------------------
  alpha Z        PSCENC =        -3.45806318
  Ewald energy   TEWEN  =      4207.66579448
  -Hartree energ DENC   =     -6224.41361279
  -exchange      EXHF   =         0.00000000
  -V(xc)+E(xc)   XCENC  =      -976.00888268
  PAW double counting   =      4917.63608557    -3735.55793237
  entropy T*S    EENTRO =        -0.30213471
  eigenvalues    EBANDS =      -286.50877337
  atomic energy  EATOM  =      1980.91170990
  Solvation  Ediel_sol  =         0.00000000
  ---------------------------------------------------
  free energy    TOTEN  =      -120.03580915 eV

  energy without entropy =     -119.73367444  energy(sigma->0) =     -119.88474180


--------------------------------------------------------------------------------------------------------




--------------------------------------- Iteration      1(  13)  ---------------------------------------


    POTLOK:  cpu time      0.0273: real time      0.0352
    SETDIJ:  cpu time      0.0013: real time      0.0013
     EDDAV:  cpu time      2.1649: real time      1.4600
       DOS:  cpu time      0.0005: real time      0.0005
    CHARGE:  cpu time      0.0155: real time      0.0155
    MIXING:  cpu time      0.0005: real time      0.0005
    --------------------------------------------
      LOOP:  cpu time      2.2099: real time      1.5130

 eigenvalue-minimisations  :   512
 total energy-change (2. order) : 0.4536400E-02  (-0.7185928E-03)
 number of electron     110.9999978 magnetization 
 augmentation part       -1.3744005 magnetization 

 Broyden mixing:
  rms(total) = 0.76176E-02    rms(broyden)= 0.76175E-02
  rms(prec ) = 0.16963E-01
  weight for this iteration     100.00

 eigenvalues of (default mixing * dielectric matrix)
  average eigenvalue GAMMA=   1.2846
  2.8126  2.5646  1.1054  1.1054  1.0149  0.3466  0.6247  0.7027

 Free energy of the ion-electron system (eV)
  ---------------------------------------------------
  alpha Z        PSCENC =        -3.45806318
  Ewald energy   TEWEN  =      4207.66579448
  -Hartree energ DENC   =     -6229.07478713
  -exchange      EXHF   =         0.00000000
  -V(xc)+E(xc)   XCENC  =      -975.88417072
  PAW double counting   =      4852.61504767    -3670.54500796
  entropy T*S    EENTRO =        -0.30839899
  eigenvalues    EBANDS =      -281.95339680
  atomic energy  EATOM  =      1980.91170990
  Solvation  Ediel_sol  =         0.00000000
  ---------------------------------------------------
  free energy    TOTEN  =      -120.03127275 eV

  energy without entropy =     -119.72287376  energy(sigma->0) =     -119.87707325


--------------------------------------------------------------------------------------------------------




--------------------------------------- Iteration      1(  14)  ---------------------------------------


    POTLOK:  cpu time      0.0288: real time      0.0349
    SETDIJ:  cpu time      0.0013: real time      0.0013
     EDDAV:  cpu time      0.5819: real time      0.4126
       DOS:  cpu time      0.0005: real time      0.0005
    CHARGE:  cpu time      0.0177: real time      0.0176
    MIXING:  cpu time      0.0006: real time      0.0006
    --------------------------------------------
      LOOP:  cpu time      0.6307: real time      0.4674

 eigenvalue-minimisations  :   256
 total energy-change (2. order) :-0.3980165E-03  (-0.2010456E-03)
 number of electron     110.9999978 magnetization 
 augmentation part       -1.3743318 magnetization 

 Broyden mixing:
  rms(total) = 0.65264E-02    rms(broyden)= 0.65264E-02
  rms(prec ) = 0.12849E-01
  weight for this iteration     100.00

 eigenvalues of (default mixing * dielectric matrix)
  average eigenvalue GAMMA=   1.2809
  2.7105  2.7105  1.3706  1.3706  0.3465  0.9575  0.7907  0.6357  0.6357

 Free energy of the ion-electron system (eV)
  ---------------------------------------------------
  alpha Z        PSCENC =        -3.45806318
  Ewald energy   TEWEN  =      4207.66579448
  -Hartree energ DENC   =     -6230.96870757
  -exchange      EXHF   =         0.00000000
  -V(xc)+E(xc)   XCENC  =      -975.85128474
  PAW double counting   =      4846.28909550    -3664.21594167
  entropy T*S    EENTRO =        -0.30886803
  eigenvalues    EBANDS =      -280.09540546
  atomic energy  EATOM  =      1980.91170990
  Solvation  Ediel_sol  =         0.00000000
  ---------------------------------------------------
  free energy    TOTEN  =      -120.03167077 eV

  energy without entropy =     -119.72280274  energy(sigma->0) =     -119.87723675


--------------------------------------------------------------------------------------------------------




--------------------------------------- Iteration      1(  15)  ---------------------------------------


    POTLOK:  cpu time      0.0242: real time      0.0363
    SETDIJ:  cpu time      0.0014: real time      0.0014
     EDDAV:  cpu time      1.2204: real time      0.8326
       DOS:  cpu time      0.0005: real time      0.0005
    CHARGE:  cpu time      0.0169: real time      0.0169
    MIXING:  cpu time      0.0006: real time      0.0006
    --------------------------------------------
      LOOP:  cpu time      1.2640: real time      0.8883

 eigenvalue-minimisations  :   384
 total energy-change (2. order) :-0.1964979E-02  (-0.1262954E-03)
 number of electron     110.9999978 magnetization 
 augmentation part       -1.3738026 magnetization 

 Broyden mixing:
  rms(total) = 0.41549E-02    rms(broyden)= 0.41549E-02
  rms(prec ) = 0.88891E-02
  weight for this iteration     100.00

 eigenvalues of (default mixing * dielectric matrix)
  average eigenvalue GAMMA=   1.4790
  4.3359  2.4986  2.4986  1.1271  1.1271  0.3466  0.8300  0.8300  0.6169  0.5797

 Free energy of the ion-electron system (eV)
  ---------------------------------------------------
  alpha Z        PSCENC =        -3.45806318
  Ewald energy   TEWEN  =      4207.66579448
  -Hartree energ DENC   =     -6232.51359687
  -exchange      EXHF   =         0.00000000
  -V(xc)+E(xc)   XCENC  =      -975.84612496
  PAW double counting   =      4847.91520086    -3665.83516243
  entropy T*S    EENTRO =        -0.30757241
  eigenvalues    EBANDS =      -278.56582113
  atomic energy  EATOM  =      1980.91170990
  Solvation  Ediel_sol  =         0.00000000
  ---------------------------------------------------
  free energy    TOTEN  =      -120.03363574 eV

  energy without entropy =     -119.72606333  energy(sigma->0) =     -119.87984954


--------------------------------------------------------------------------------------------------------




--------------------------------------- Iteration      1(  16)  ---------------------------------------


    POTLOK:  cpu time      0.0344: real time      0.0354
    SETDIJ:  cpu time      0.0013: real time      0.0013
     EDDAV:  cpu time      0.6101: real time      0.4244
       DOS:  cpu time      0.0005: real time      0.0005
    CHARGE:  cpu time      0.0179: real time      0.0179
    MIXING:  cpu time      0.0006: real time      0.0006
    --------------------------------------------
      LOOP:  cpu time      0.6647: real time      0.4801

 eigenvalue-minimisations  :   256
 total energy-change (2. order) :-0.2447623E-02  (-0.1459869E-03)
 number of electron     110.9999978 magnetization 
 augmentation part       -1.3738495 magnetization 

 Broyden mixing:
  rms(total) = 0.24923E-02    rms(broyden)= 0.24923E-02
  rms(prec ) = 0.40314E-02
  weight for this iteration     100.00

 eigenvalues of (default mixing * dielectric matrix)
  average eigenvalue GAMMA=   1.5842
  5.1404  2.9334  2.4311  1.5140  1.1936  0.3466  0.9654  0.9654  0.7333  0.6248
  0.5785

 Free energy of the ion-electron system (eV)
  ---------------------------------------------------
  alpha Z        PSCENC =        -3.45806318
  Ewald energy   TEWEN  =      4207.66579448
  -Hartree energ DENC   =     -6234.86377819
  -exchange      EXHF   =         0.00000000
  -V(xc)+E(xc)   XCENC  =      -975.82062435
  PAW double counting   =      4849.76662108    -3667.67954970
  entropy T*S    EENTRO =        -0.30978789
  eigenvalues    EBANDS =      -276.24840551
  atomic energy  EATOM  =      1980.91170990
  Solvation  Ediel_sol  =         0.00000000
  ---------------------------------------------------
  free energy    TOTEN  =      -120.03608337 eV

  energy without entropy =     -119.72629548  energy(sigma->0) =     -119.88118942


--------------------------------------------------------------------------------------------------------




--------------------------------------- Iteration      1(  17)  ---------------------------------------


    POTLOK:  cpu time      0.0218: real time      0.0348
    SETDIJ:  cpu time      0.0014: real time      0.0014
     EDDAV:  cpu time      2.1607: real time      1.4451
       DOS:  cpu time      0.0005: real time      0.0005
    CHARGE:  cpu time      0.0156: real time      0.0156
    MIXING:  cpu time      0.0007: real time      0.0007
    --------------------------------------------
      LOOP:  cpu time      2.2006: real time      1.4981

 eigenvalue-minimisations  :   512
 total energy-change (2. order) :-0.1390967E-02  (-0.2192617E-04)
 number of electron     110.9999978 magnetization 
 augmentation part       -1.3736879 magnetization 

 Broyden mixing:
  rms(total) = 0.15053E-02    rms(broyden)= 0.15053E-02
  rms(prec ) = 0.24239E-02
  weight for this iteration     100.00

 eigenvalues of (default mixing * dielectric matrix)
  average eigenvalue GAMMA=   1.6097
  5.6212  3.0626  2.3693  2.0710  1.0892  1.0892  0.3466  0.9446  0.8397  0.6737
  0.6343  0.5755

 Free energy of the ion-electron system (eV)
  ---------------------------------------------------
  alpha Z        PSCENC =        -3.45806318
  Ewald energy   TEWEN  =      4207.66579448
  -Hartree energ DENC   =     -6235.35161833
  -exchange      EXHF   =         0.00000000
  -V(xc)+E(xc)   XCENC  =      -975.82260940
  PAW double counting   =      4853.91385550    -3671.82619439
  entropy T*S    EENTRO =        -0.30904381
  eigenvalues    EBANDS =      -275.76130511
  atomic energy  EATOM  =      1980.91170990
  Solvation  Ediel_sol  =         0.00000000
  ---------------------------------------------------
  free energy    TOTEN  =      -120.03747433 eV

  energy without entropy =     -119.72843052  energy(sigma->0) =     -119.88295243


--------------------------------------------------------------------------------------------------------




--------------------------------------- Iteration      1(  18)  ---------------------------------------


    POTLOK:  cpu time      0.0218: real time      0.0348
    SETDIJ:  cpu time      0.0013: real time      0.0013
     EDDAV:  cpu time      1.1251: real time      0.7627
       DOS:  cpu time      0.0005: real time      0.0005
    CHARGE:  cpu time      0.0180: real time      0.0180
    MIXING:  cpu time      0.0006: real time      0.0006
    --------------------------------------------
      LOOP:  cpu time      1.1673: real time      0.8179

 eigenvalue-minimisations  :   384
 total energy-change (2. order) :-0.7320556E-03  (-0.5194442E-05)
 number of electron     110.9999978 magnetization 
 augmentation part       -1.3737064 magnetization 

 Broyden mixing:
  rms(total) = 0.95582E-03    rms(broyden)= 0.95582E-03
  rms(prec ) = 0.13184E-02
  weight for this iteration     100.00

 eigenvalues of (default mixing * dielectric matrix)
  average eigenvalue GAMMA=   1.7204
  6.5191  3.1763  2.5861  2.5861  1.3882  0.3466  1.0103  1.0103  1.0546  0.7759
  0.7065  0.6294  0.5760

 Free energy of the ion-electron system (eV)
  ---------------------------------------------------
  alpha Z        PSCENC =        -3.45806318
  Ewald energy   TEWEN  =      4207.66579448
  -Hartree energ DENC   =     -6235.43889478
  -exchange      EXHF   =         0.00000000
  -V(xc)+E(xc)   XCENC  =      -975.82335036
  PAW double counting   =      4854.00366667    -3671.91707378
  entropy T*S    EENTRO =        -0.30890337
  eigenvalues    EBANDS =      -275.67309195
  atomic energy  EATOM  =      1980.91170990
  Solvation  Ediel_sol  =         0.00000000
  ---------------------------------------------------
  free energy    TOTEN  =      -120.03820639 eV

  energy without entropy =     -119.72930302  energy(sigma->0) =     -119.88375470


--------------------------------------------------------------------------------------------------------




--------------------------------------- Iteration      1(  19)  ---------------------------------------


    POTLOK:  cpu time      0.0220: real time      0.0347
    SETDIJ:  cpu time      0.0013: real time      0.0013
     EDDAV:  cpu time      1.1725: real time      0.7914
       DOS:  cpu time      0.0004: real time      0.0005
    CHARGE:  cpu time      0.0157: real time      0.0157
    MIXING:  cpu time      0.0007: real time      0.0007
    --------------------------------------------
      LOOP:  cpu time      1.2126: real time      0.8443

 eigenvalue-minimisations  :   384
 total energy-change (2. order) :-0.3863104E-03  (-0.2399687E-05)
 number of electron     110.9999978 magnetization 
 augmentation part       -1.3737875 magnetization 

 Broyden mixing:
  rms(total) = 0.33118E-03    rms(broyden)= 0.33118E-03
  rms(prec ) = 0.46210E-03
  weight for this iteration     100.00

 eigenvalues of (default mixing * dielectric matrix)
  average eigenvalue GAMMA=   1.7663
  7.0119  3.7676  2.5540  2.5540  1.6999  0.3466  1.0901  1.0901  0.9730  0.9730
  0.7740  0.6877  0.6302  0.5760

 Free energy of the ion-electron system (eV)
  ---------------------------------------------------
  alpha Z        PSCENC =        -3.45806318
  Ewald energy   TEWEN  =      4207.66579448
  -Hartree energ DENC   =     -6235.48088148
  -exchange      EXHF   =         0.00000000
  -V(xc)+E(xc)   XCENC  =      -975.82261307
  PAW double counting   =      4852.12018185    -3670.03473308
  entropy T*S    EENTRO =        -0.30916941
  eigenvalues    EBANDS =      -275.63081871
  atomic energy  EATOM  =      1980.91170990
  Solvation  Ediel_sol  =         0.00000000
  ---------------------------------------------------
  free energy    TOTEN  =      -120.03859270 eV

  energy without entropy =     -119.72942329  energy(sigma->0) =     -119.88400800


--------------------------------------------------------------------------------------------------------




--------------------------------------- Iteration      1(  20)  ---------------------------------------


    POTLOK:  cpu time      0.0240: real time      0.0349
    SETDIJ:  cpu time      0.0013: real time      0.0013
     EDDAV:  cpu time      0.6097: real time      0.4256
       DOS:  cpu time      0.0004: real time      0.0005
    CHARGE:  cpu time      0.0157: real time      0.0157
    MIXING:  cpu time      0.0007: real time      0.0007
    --------------------------------------------
      LOOP:  cpu time      0.6519: real time      0.4786

 eigenvalue-minimisations  :   256
 total energy-change (2. order) :-0.8415328E-04  (-0.6340697E-06)
 number of electron     110.9999978 magnetization 
 augmentation part       -1.3737919 magnetization 

 Broyden mixing:
  rms(total) = 0.21167E-03    rms(broyden)= 0.21167E-03
  rms(prec ) = 0.29471E-03
  weight for this iteration     100.00

 eigenvalues of (default mixing * dielectric matrix)
  average eigenvalue GAMMA=   1.7928
  7.4269  3.8746  2.6188  2.6188  1.9994  1.3231  0.3466  1.0825  1.0825  0.9358
  0.9358  0.7345  0.7076  0.6288  0.5759

 Free energy of the ion-electron system (eV)
  ---------------------------------------------------
  alpha Z        PSCENC =        -3.45806318
  Ewald energy   TEWEN  =      4207.66579448
  -Hartree energ DENC   =     -6235.51039310
  -exchange      EXHF   =         0.00000000
  -V(xc)+E(xc)   XCENC  =      -975.82280868
  PAW double counting   =      4852.16975879    -3670.08425932
  entropy T*S    EENTRO =        -0.30917123
  eigenvalues    EBANDS =      -275.60124451
  atomic energy  EATOM  =      1980.91170990
  Solvation  Ediel_sol  =         0.00000000
  ---------------------------------------------------
  free energy    TOTEN  =      -120.03867685 eV

  energy without entropy =     -119.72950562  energy(sigma->0) =     -119.88409124


--------------------------------------------------------------------------------------------------------




--------------------------------------- Iteration      1(  21)  ---------------------------------------


    POTLOK:  cpu time      0.0219: real time      0.0353
    SETDIJ:  cpu time      0.0013: real time      0.0013
     EDDAV:  cpu time      1.1962: real time      0.8059
       DOS:  cpu time      0.0005: real time      0.0005
    CHARGE:  cpu time      0.0198: real time      0.0198
    MIXING:  cpu time      0.0008: real time      0.0008
    --------------------------------------------
      LOOP:  cpu time      1.2405: real time      0.8635

 eigenvalue-minimisations  :   384
 total energy-change (2. order) :-0.2242987E-04  (-0.1942609E-06)
 number of electron     110.9999978 magnetization 
 augmentation part       -1.3738118 magnetization 

 Broyden mixing:
  rms(total) = 0.90349E-04    rms(broyden)= 0.90349E-04
  rms(prec ) = 0.12257E-03
  weight for this iteration     100.00

 eigenvalues of (default mixing * dielectric matrix)
  average eigenvalue GAMMA=   1.7937
  7.4786  4.1087  2.7651  2.7171  2.1226  1.6164  0.3466  1.1179  1.1179  0.9592
  0.9592  0.5760  0.6289  0.6936  0.7458  0.7458

 Free energy of the ion-electron system (eV)
  ---------------------------------------------------
  alpha Z        PSCENC =        -3.45806318
  Ewald energy   TEWEN  =      4207.66579448
  -Hartree energ DENC   =     -6235.50970309
  -exchange      EXHF   =         0.00000000
  -V(xc)+E(xc)   XCENC  =      -975.82271645
  PAW double counting   =      4851.84012873    -3669.75462674
  entropy T*S    EENTRO =        -0.30920010
  eigenvalues    EBANDS =      -275.60202284
  atomic energy  EATOM  =      1980.91170990
  Solvation  Ediel_sol  =         0.00000000
  ---------------------------------------------------
  free energy    TOTEN  =      -120.03869928 eV

  energy without entropy =     -119.72949919  energy(sigma->0) =     -119.88409923


--------------------------------------------------------------------------------------------------------




--------------------------------------- Iteration      1(  22)  ---------------------------------------


    POTLOK:  cpu time      0.0240: real time      0.0367
    SETDIJ:  cpu time      0.0013: real time      0.0013
     EDDAV:  cpu time      0.6436: real time      0.4753
       DOS:  cpu time      0.0005: real time      0.0005
    --------------------------------------------
      LOOP:  cpu time      0.6694: real time      0.5138

 eigenvalue-minimisations  :   256
 total energy-change (2. order) :-0.7244838E-05  (-0.5877130E-07)
 number of electron     110.9999978 magnetization 
 augmentation part       -1.3738118 magnetization 

 Free energy of the ion-electron system (eV)
  ---------------------------------------------------
  alpha Z        PSCENC =        -3.45806318
  Ewald energy   TEWEN  =      4207.66579448
  -Hartree energ DENC   =     -6235.51276019
  -exchange      EXHF   =         0.00000000
  -V(xc)+E(xc)   XCENC  =      -975.82270540
  PAW double counting   =      4851.67731692    -3669.59179499
  entropy T*S    EENTRO =        -0.30920211
  eigenvalues    EBANDS =      -275.59900196
  atomic energy  EATOM  =      1980.91170990
  Solvation  Ediel_sol  =         0.00000000
  ---------------------------------------------------
  free energy    TOTEN  =      -120.03870653 eV

  energy without entropy =     -119.72950442  energy(sigma->0) =     -119.88410547


--------------------------------------------------------------------------------------------------------




 average (electrostatic) potential at core
  the test charge radii are     1.0406
  (the norm of the test charge is              1.0000)
       1 -79.1368       2 -79.2402       3 -79.2044       4 -79.1190       5 -79.1425
       6 -79.2882       7 -79.1945       8 -79.1184       9 -79.1404      10 -79.2357
      11 -79.2942      12 -79.1620      13 -79.1437      14 -79.2889      15 -79.2400
      16 -79.1228      17 -79.2275      18 -79.4966      19 -79.2326      20 -79.1218
      21 -79.1431      22 -79.2882      23 -79.2883      24 -79.1577      25 -79.1200
      26 -79.2597      27 -79.2901      28 -79.1593      29 -79.1446      30 -79.2910
      31 -79.2916      32 -79.1604      33 -79.1240      34 -79.2551      35 -79.3315
      36 -79.1955      37 -79.3349
 
 
 
 E-fermi :   1.3048     XC(G=0):  -5.8108     alpha+bet : -6.8301

 Fermi energy:         1.3048057924

 k-point     1 :       0.0000    0.0000    0.0000
  band No.  band energies     occupation 
      1      -9.1543      2.00000
      2      -7.7815      2.00000
      3      -7.1862      2.00000
      4      -7.1605      2.00000
      5      -7.1426      2.00000
      6      -7.1425      2.00000
      7      -5.9760      2.00000
      8      -5.7701      2.00000
      9      -5.7699      2.00000
     10      -5.7545      2.00000
     11      -5.7455      2.00000
     12      -5.2170      2.00000
     13      -5.1886      2.00000
     14      -5.1886      2.00000
     15      -5.1624      2.00000
     16      -4.2550      2.00000
     17      -3.8367      2.00000
     18      -3.8360      2.00000
     19      -3.8208      2.00000
     20      -3.8053      2.00000
     21      -3.7559      2.00000
     22      -3.7558      2.00000
     23      -3.7549      2.00000
     24      -3.1487      2.00000
     25      -2.2248      2.00000
     26      -1.8827      2.00000
     27      -1.8822      2.00000
     28      -1.7882      2.00000
     29      -1.6560      2.00000
     30      -1.3349      2.00000
     31      -1.3338      2.00000
     32      -1.3338      2.00000
     33      -1.3196      2.00000
     34      -1.0015      2.00000
     35      -0.9997      2.00000
     36      -0.8716      2.00000
     37      -0.7104      2.00000
     38      -0.0727      2.00000
     39      -0.0720      2.00000
     40      -0.0474      2.00000
     41      -0.0289      2.00000
     42      -0.0284      2.00000
     43      -0.0270      2.00000
     44      -0.0191      2.00000
     45       0.0039      2.00000
     46       0.0519      2.00000
     47       0.6975      2.00000
     48       0.7003      2.00000
     49       0.9269      2.00000
     50       0.9709      2.00000
     51       1.1657      1.95089
     52       1.1659      1.95058
     53       1.2421      1.62460
     54       1.2581      1.49095
     55       1.2585      1.48730
     56       1.2623      1.45256
[...]

  kinetic pressure (ideal gas correction) =      1.44 kB
  total pressure  =     17.62 kB
  Total+kin.    22.893      21.193       8.774       0.754       2.106       3.575
  volume of cell :     1329.71
      direct lattice vectors                 reciprocal lattice vectors
     8.567900000  0.000000000  0.000000000     0.116714714  0.000000000  0.000000000
     0.000000000  8.567900000  0.000000000     0.000000000  0.116714714  0.000000000
     0.000000000  0.000000000 18.113700000     0.000000000  0.000000000  0.055206832

  length of vectors
     8.567900000  8.567900000 18.113700000     0.116714714  0.116714714  0.055206832


  POSITION                                       TOTAL-FORCE (eV/Angst) (ML)
 -----------------------------------------------------------------------------------
      0.04896      8.51708      9.23540        -0.309997      0.258578     -0.684396
      0.07864      8.52242     12.89322        -0.371480     -0.038760     -0.377413
      1.38806      1.41283      7.16392        -0.188532     -0.561946     -0.236972
      1.40466      1.40501     11.06380         0.150311      0.278922      0.372701
      2.91464      0.00542      9.01177        -0.162504      0.404327     -0.280273
      2.85021      0.05004     12.89728         0.045619     -0.112864     -0.076286
      4.51230      1.37505      7.17378        -0.532752     -0.065694     -0.065068
      4.19997      1.40994     10.96615         0.104038      0.089062      0.782359
      5.71847      8.51747      9.20799         0.316575      0.360042     -0.715033
      5.65502      8.56263     12.91204        -0.136738      0.001420     -0.469868
      7.10500      1.35275      7.22710         0.520559      0.095915      0.465849
      7.12795      1.38799     11.10457        -0.215915      0.023757      0.528621
      0.12441      2.75803      8.94854        -0.323788      0.092583      0.245004
      8.48302      2.86527     12.75507         0.196460      0.109804      0.336813
      1.33862      4.39126      7.10593         0.144067     -0.064039      0.000459
      1.41107      4.31833     11.07626        -0.258639     -0.206910      0.298634
      2.89485      2.83311      8.76575         0.091759      0.095049      0.180770
      2.76322      2.81358     12.86940         0.104206      0.022682     -0.100482
      4.38022      4.38795      7.17726         0.375544      0.029004     -0.044812
      4.19298      4.24489     11.08341         0.242673      0.021519      0.273947
      5.73207      2.88033      9.15614        -0.154915     -0.269629     -0.622151
      5.56068      2.88701     12.86219         0.289204     -0.189296     -0.295455
      7.13993      4.30629      7.48463         0.122755     -0.095400     -0.847543
      7.07433      4.32053     11.02740         0.149357     -0.387566      0.611974
      8.54412      5.64747      9.13249         0.680342      0.241987     -0.284329
      8.47820      5.76221     12.99311         0.132978     -0.037206     -0.391252
      1.45245      7.17246      7.44443        -0.185692     -0.349900     -0.289150
      1.44484      7.15651     11.05791        -0.233585     -0.094957      0.112137
      2.97567      5.57514      9.05124        -0.487755      0.197333     -0.365170
      2.79851      5.75351     12.75890         0.171265     -0.052005      0.596802
      4.35348      7.15965      7.37274         0.287023     -0.069375     -0.016746
      4.20358      7.10288     10.97406         0.139317      0.142852      0.762198
      5.82753      5.76610      9.13633        -0.543264      0.001464     -0.566211
      5.64724      5.73499     12.92919        -0.129659     -0.138257     -0.233180
      7.30237      7.26208      7.27701        -0.441753     -0.256821      0.311133
      7.03181      7.04019     11.04118         0.558305      0.560662      1.036235
      2.94870      2.86185      5.70546        -0.145387     -0.036336      0.046154
 -----------------------------------------------------------------------------------
    total drift:                                0.000000     -0.000000      0.000000


--------------------------------------------------------------------------------------------------------



  ML FREE ENERGIE OF THE ION-ELECTRON SYSTEM (eV)
  ---------------------------------------------------
  free  energy ML TOTEN  =      -121.00404462 eV

  ML energy  without entropy=     -121.00404462  ML energy(sigma->0) =     -121.00404462

      MLFF:  cpu time      0.0062: real time      0.0073
     LOOP+:  cpu time      0.0071: real time      0.0081
 stress matrix after NEB project (eV)
     17.68051      0.55794      2.65319
      0.55794     16.72832      1.68557
      2.65319      1.68557      5.88009
  FORCES: max atom, RMS     1.303775    0.589413
  FORCE total and by dimension    3.585262    1.036235
  Stress total and by dimension   25.443983   17.680507
           RANDOM_SEED =         730794274              222                0
   IONSTEP:  cpu time      0.0009: real time      0.0009

  ENERGY OF THE ELECTRON-ION-THERMOSTAT SYSTEM (eV)
  ---------------------------------------------------
% ion-electron   TOTEN  =      -121.004045  see above
  kinetic energy EKIN   =         1.800992
  kin. lattice  EKIN_LAT=         0.000000  (temperature  387.03 K)
  nose potential ES     =         0.814402
  nose kinetic   EPS    =         0.025191
  ---------------------------------------------------
  total energy   ETOTAL =      -118.363459 eV



--------------------------------------- Ionic step      132  -------------------------------------------



  ML FORCE on cell =-STRESS in cart. coord. units (eV/cell)
  Direction    XX          YY          ZZ          XY          YZ          ZX
  --------------------------------------------------------------------------------------
  Total:     17.96558    16.99883     6.11319     0.48263     1.75594     2.69756
  in kB      21.64691    20.48206     7.36584     0.58153     2.11576     3.25032
  external pressure =       16.50 kB  Pullay stress =        0.00 kB

  kinetic pressure (ideal gas correction) =      1.46 kB
  total pressure  =     17.95 kB
  Total+kin.    23.238      21.538       9.087       0.645       2.196       3.636
  volume of cell :     1329.71
      direct lattice vectors                 reciprocal lattice vectors
     8.567900000  0.000000000  0.000000000     0.116714714  0.000000000  0.000000000
     0.000000000  8.567900000  0.000000000     0.000000000  0.116714714  0.000000000
     0.000000000  0.000000000 18.113700000     0.000000000  0.000000000  0.055206832

  length of vectors
     8.567900000  8.567900000 18.113700000     0.116714714  0.116714714  0.055206832


  POSITION                                       TOTAL-FORCE (eV/Angst) (ML)
 -----------------------------------------------------------------------------------
      0.05116      8.51383      9.23984        -0.328871      0.279563     -0.677912
      0.08281      8.52526     12.89185        -0.377824     -0.061203     -0.386176
      1.38810      1.41131      7.16205        -0.182354     -0.551104     -0.229596
      1.40984      1.40664     11.07034         0.136521      0.269781      0.329203
      2.91627      0.00396      9.01078        -0.178426      0.440786     -0.272393
      2.85255      0.05150     12.90068         0.046508     -0.113400     -0.073578
      4.51134      1.37397      7.16787        -0.541827     -0.068994     -0.025177
      4.19364      1.41607     10.96410         0.134851      0.068810      0.785665
      5.71323      8.51603      9.20851         0.348451      0.382299     -0.708239
      5.65080      8.56592     12.91019        -0.135490     -0.000930     -0.486522
      7.10209      1.34574      7.22031         0.542239      0.128235      0.480169
      7.13239      1.38868     11.10659        -0.249282      0.002344      0.510452
      0.12399      2.75782      8.94382        -0.309936      0.061482      0.266280
      8.48352      2.86238     12.75127         0.205322      0.133710      0.373091
      1.33685      4.39236      7.10068         0.128308     -0.058139      0.025829
      1.41479      4.32126     11.07780        -0.291465     -0.230270      0.287163
      2.89285      2.83822      8.76163         0.112370      0.065486      0.186085
      2.76124      2.81500     12.87229         0.108960      0.023396     -0.093031
      4.37635      4.39097      7.17481         0.421042      0.048826     -0.002358
      4.19016      4.24455     11.08895         0.262201      0.018646      0.237976
      5.74049      2.87999      9.15454        -0.209616     -0.293730     -0.613462
      5.56058      2.88643     12.85868         0.291092     -0.200017     -0.286573
      7.13871      4.30601      7.48977         0.124119     -0.096066     -0.931123
      7.07299      4.32087     11.02831         0.159786     -0.404558      0.615192
      8.53887      5.64223      9.13232         0.720840      0.272943     -0.255652
      8.47828      5.76083     12.99211         0.138348     -0.026921     -0.395641
      1.44903      7.17051      7.45120        -0.168812     -0.354019     -0.326464
      1.45495      7.15395     11.06277        -0.292987     -0.063716      0.076096
      2.97422      5.57714      9.05534        -0.493794      0.175543     -0.378760
      2.79783      5.75355     12.75816         0.188660     -0.062412      0.649866
      4.35153      7.15821      7.37658         0.296858     -0.064843     -0.044035
      4.20107      7.10007     10.97290         0.169718      0.166233      0.776582
      5.82911      5.76735      9.13640        -0.567537      0.002330     -0.554365
      5.64622      5.73279     12.92273        -0.133364     -0.135377     -0.220617
      7.30581      7.26539      7.27476        -0.463104     -0.281994      0.323507
      7.03257      7.03562     11.04323         0.569874      0.607815      1.043327
      2.95154      2.86786      5.70888        -0.181381     -0.080535     -0.004810
 -----------------------------------------------------------------------------------
    total drift:                                0.000000      0.000000      0.000000


--------------------------------------------------------------------------------------------------------



  ML FREE ENERGIE OF THE ION-ELECTRON SYSTEM (eV)
  ---------------------------------------------------
  free  energy ML TOTEN  =      -120.97092637 eV

  ML energy  without entropy=     -120.97092637  ML energy(sigma->0) =     -120.97092637

      MLFF:  cpu time      0.0061: real time      0.0072
     LOOP+:  cpu time      0.0070: real time      0.0081
 stress matrix after NEB project (eV)
     17.96558      0.48263      2.69756
      0.48263     16.99883      1.75594
      2.69756      1.75594      6.11319
  FORCES: max atom, RMS     1.335188    0.606300
  FORCE total and by dimension    3.687977    1.043327
  Stress total and by dimension   25.889757   17.965580
           RANDOM_SEED =         730794274              222                0
   IONSTEP:  cpu time      0.0008: real time      0.0008

  ENERGY OF THE ELECTRON-ION-THERMOSTAT SYSTEM (eV)
  ---------------------------------------------------
% ion-electron   TOTEN  =      -120.970926  see above
  kinetic energy EKIN   =         1.815206
  kin. lattice  EKIN_LAT=         0.000000  (temperature  390.08 K)
  nose potential ES     =         0.777883
  nose kinetic   EPS    =         0.014293
  ---------------------------------------------------
  total energy   ETOTAL =      -118.363544 eV



--------------------------------------- Ionic step      133  -------------------------------------------



  ML FORCE on cell =-STRESS in cart. coord. units (eV/cell)
  Direction    XX          YY          ZZ          XY          YZ          ZX
  --------------------------------------------------------------------------------------
  Total:     18.25747    17.28064     6.35737     0.40506     1.82437     2.74231
  in kB      21.99860    20.82161     7.66005     0.48806     2.19820     3.30423
  external pressure =       16.83 kB  Pullay stress =        0.00 kB

  kinetic pressure (ideal gas correction) =      1.46 kB
  total pressure  =     18.29 kB
  Total+kin.    23.576      21.886       9.401       0.531       2.284       3.695
  volume of cell :     1329.71
      direct lattice vectors                 reciprocal lattice vectors
     8.567900000  0.000000000  0.000000000     0.116714714  0.000000000  0.000000000
     0.000000000  8.567900000  0.000000000     0.000000000  0.116714714  0.000000000
     0.000000000  0.000000000 18.113700000     0.000000000  0.000000000  0.055206832

  length of vectors
     8.567900000  8.567900000 18.113700000     0.116714714  0.116714714  0.055206832


  POSITION                                       TOTAL-FORCE (eV/Angst) (ML)
 -----------------------------------------------------------------------------------
      0.05327      8.51063      9.24409        -0.347110      0.300222     -0.670182
      0.08689      8.52812     12.89032        -0.383541     -0.083771     -0.393875
      1.38808      1.40957      7.16008        -0.175083     -0.538612     -0.220914
      1.41514      1.40838     11.07708         0.121869      0.258844      0.283368
      2.91786      0.00264      9.00967        -0.194575      0.476369     -0.263484
      2.85494      0.05293     12.90409         0.046903     -0.114041     -0.070572
      4.51017      1.37285      7.16189        -0.549791     -0.073108      0.014617
      4.18728      1.42229     10.96231         0.166766      0.047775      0.788092
      5.70806      8.51470      9.20878         0.379903      0.404354     -0.700080
      5.64650      0.00135     12.90814        -0.133800     -0.003568     -0.502841
      7.09934      1.33869      7.21362         0.562253      0.162931      0.493584
      7.13679      1.38938     11.10881        -0.282790     -0.019587      0.490336
      0.12346      2.75763      8.93916        -0.295259      0.030289      0.286983
      8.48410      2.85952     12.74756         0.214032      0.158556      0.411240
      1.33512      4.39345      7.09537         0.111779     -0.052492      0.051819
      1.41844      4.32413     11.07947        -0.324016     -0.253375      0.275440
      2.89087      2.84341      8.75752         0.132008      0.035199      0.191294
      2.75929      2.81643     12.87518         0.114087      0.024725     -0.085074
      4.37259      4.39405      7.17233         0.466798      0.068891      0.040681
      4.18740      4.24422     11.09465         0.280987      0.016343      0.200335
      5.74893      2.87953      9.15271        -0.264604     -0.318143     -0.603258
      5.56059      2.88577     12.85502         0.292687     -0.210590     -0.276223
      7.13752      4.30569      7.49462         0.125324     -0.095361     -1.015147
      7.07168      4.32107     11.02945         0.170045     -0.420393      0.617157
      8.53383      5.63703      9.13205         0.759827      0.304025     -0.225688
      8.47841      5.75943     12.99096         0.144024     -0.016902     -0.400239
      1.44551      7.16842      7.45793        -0.150263     -0.356817     -0.364427
      1.46507      7.15134     11.06771        -0.353471     -0.031481      0.039378
      2.97258      5.57922      9.05935        -0.498563      0.153383     -0.392167
      2.79722      5.75357     12.75766         0.205825     -0.073425      0.703938
      4.34966      7.15673      7.38045         0.305901     -0.059591     -0.072433
      4.19859      7.09729     10.97201         0.201132      0.189922      0.789690
      5.83049      5.76861      9.13626        -0.589721      0.003038     -0.539900
      5.64513      5.73052     12.91613        -0.136685     -0.132254     -0.206715
      7.30912      7.26864      7.27260        -0.484614     -0.309590      0.335715
      7.03353      7.03122     11.04568         0.579873      0.654186      1.047865
      2.95435      2.87392      5.71233        -0.218137     -0.125950     -0.058313
 -----------------------------------------------------------------------------------
    total drift:                               -0.000000      0.000000     -0.000000


--------------------------------------------------------------------------------------------------------



  ML FREE ENERGIE OF THE ION-ELECTRON SYSTEM (eV)
  ---------------------------------------------------
  free  energy ML TOTEN  =      -120.93505416 eV

  ML energy  without entropy=     -120.93505416  ML energy(sigma->0) =     -120.93505416

      MLFF:  cpu time      0.0063: real time      0.0076
     LOOP+:  cpu time      0.0072: real time      0.0084
 stress matrix after NEB project (eV)
     18.25747      0.40506      2.74231
      0.40506     17.28064      1.82437
      2.74231      1.82437      6.35737
  FORCES: max atom, RMS     1.364636    0.624737
  FORCE total and by dimension    3.800129    1.047865
  Stress total and by dimension   26.351410   18.257466
           RANDOM_SEED =         730794274              222                0
   IONSTEP:  cpu time      0.0008: real time      0.0008

  ENERGY OF THE ELECTRON-ION-THERMOSTAT SYSTEM (eV)
  ---------------------------------------------------
% ion-electron   TOTEN  =      -120.935054  see above
  kinetic energy EKIN   =         1.813390
  kin. lattice  EKIN_LAT=         0.000000  (temperature  389.69 K)
  nose potential ES     =         0.751721
  nose kinetic   EPS    =         0.006368
  ---------------------------------------------------
  total energy   ETOTAL =      -118.363575 eV



--------------------------------------- Ionic step      134  -------------------------------------------



  ML FORCE on cell =-STRESS in cart. coord. units (eV/cell)
  Direction    XX          YY          ZZ          XY          YZ          ZX
  --------------------------------------------------------------------------------------
  Total:     18.55543    17.56684     6.60444     0.32601     1.88959     2.78787
  in kB      22.35762    21.16647     7.95775     0.39282     2.27679     3.35913
  external pressure =       17.16 kB  Pullay stress =        0.00 kB

  kinetic pressure (ideal gas correction) =      1.45 kB
  total pressure  =     18.61 kB
  Total+kin.    23.905      22.229       9.707       0.415       2.367       3.751
  volume of cell :     1329.71
      direct lattice vectors                 reciprocal lattice vectors
     8.567900000  0.000000000  0.000000000     0.116714714  0.000000000  0.000000000
     0.000000000  8.567900000  0.000000000     0.000000000  0.116714714  0.000000000
     0.000000000  0.000000000 18.113700000     0.000000000  0.000000000  0.055206832

  length of vectors
     8.567900000  8.567900000 18.113700000     0.116714714  0.116714714  0.055206832


  POSITION                                       TOTAL-FORCE (eV/Angst) (ML)
 -----------------------------------------------------------------------------------
      0.05527      8.50752      9.24813        -0.364548      0.320438     -0.661268
      0.09086      8.53096     12.88864        -0.388496     -0.106680     -0.400286
      1.38800      1.40763      7.15801        -0.167179     -0.524590     -0.211147
      1.42051      1.41023     11.08397         0.106163      0.246224      0.235443
      2.91940      0.00148      9.00846        -0.210861      0.510746     -0.253607
      2.85737      0.05433     12.90750         0.046782     -0.114176     -0.068222
      4.50880      1.37170      7.15586        -0.556173     -0.077467      0.054113
      4.18093      1.42857     10.96079         0.199654      0.025910      0.789637
      5.70299      8.51351      9.20880         0.410910      0.425948     -0.690485
      5.64211      0.00469     12.90590        -0.131601     -0.006529     -0.518763
      7.09677      1.33165      7.20706         0.580292      0.200009      0.506178
   