<?xml version="1.0" encoding="ISO-8859-1"?>
<modeling>
 <generator>
  <i name="program" type="string">vasp </i>
  <i name="version" type="string">6.4.0  </i>
  <i name="subversion" type="string">14Feb23 (build Mar 16 2023 23:21:51) complex                          parallel </i>
  <i name="platform" type="string">LinuxNV_CrayMPICH </i>
  <i name="date" type="string">2023 07 27 </i>
  <i name="time" type="string">08:35:54 </i>
 </generator>
 <incar>
  <i type="string" name="SYSTEM">AIMD-MLFF-ON-THE-FLY</i>
  <i type="int" name="ISTART">     0</i>
  <i type="int" name="ICHARG">     2</i>
  <i type="int" name="NELM">    40</i>
  <i name="EDIFF">      0.00001000</i>
  <i type="int" name="NSW">  3000</i>
  <i type="int" name="ISIF">     2</i>
  <i type="int" name="ISYM">     0</i>
  <i name="ENCUT">    400.00000000</i>
  <i name="POTIM">      1.00000000</i>
  <i name="TEBEG">    300.00000000</i>
  <i name="SMASS">      0.00000000</i>
  <i type="string" name="LREAL">Auto</i>
  <i type="int" name="ISMEAR">     0</i>
  <i name="SIGMA">      0.10000000</i>
  <i type="logical" name="LWAVE"> F  </i>
  <i type="logical" name="LCHARG"> F  </i>
  <i type="logical" name="LVTOT"> F  </i>
  <i type="logical" name="LVHAR"> F  </i>
  <i type="logical" name="LELF"> F  </i>
  <i type="string" name="GGA">PE</i>
  <i type="logical" name="ML_LMLFF"> T  </i>
  <i type="int" name="ML_ISTART">     0</i>
  <i type="int" name="MDALGO">     2</i>
 </incar>
 <primitive_cell>
  <structure name="primitive_cell" >
   <crystal>
    <varray name="basis" >
     <v>       8.56790000       0.00000000       0.00000000 </v>
     <v>       0.00000000       8.56790000       0.00000000 </v>
     <v>       0.00000000       0.00000000      18.11370000 </v>
    </varray>
    <i name="volume">   1329.70698049 </i>
    <varray name="rec_basis" >
     <v>       0.11671471       0.00000000       0.00000000 </v>
     <v>       0.00000000       0.11671471       0.00000000 </v>
     <v>       0.00000000       0.00000000       0.05520683 </v>
    </varray>
   </crystal>
   <varray name="positions" >
    <v>       0.00000000       0.00000000       0.50099000 </v>
    <v>       0.00000000       0.00000000       0.72397000 </v>
    <v>       0.16667000       0.16667000       0.38950000 </v>
    <v>       0.16667000       0.16667000       0.61248000 </v>
    <v>       0.33333000       0.00000000       0.50099000 </v>
    <v>       0.33333000       0.00000000       0.72397000 </v>
    <v>       0.50000000       0.16667000       0.38950000 </v>
    <v>       0.50000000       0.16667000       0.61248000 </v>
    <v>       0.66667000       0.00000000       0.50099000 </v>
    <v>       0.66667000       0.00000000       0.72397000 </v>
    <v>       0.83333000       0.16667000       0.38950000 </v>
    <v>       0.83333000       0.16667000       0.61248000 </v>
    <v>       0.00000000       0.33333000       0.50099000 </v>
    <v>       0.00000000       0.33333000       0.72397000 </v>
    <v>       0.16667000       0.50000000       0.38950000 </v>
    <v>       0.16667000       0.50000000       0.61248000 </v>
    <v>       0.33333000       0.33333000       0.50099000 </v>
    <v>       0.33333000       0.33333000       0.72397000 </v>
    <v>       0.50000000       0.50000000       0.38950000 </v>
    <v>       0.50000000       0.50000000       0.61248000 </v>
    <v>       0.66667000       0.33333000       0.50099000 </v>
    <v>       0.66667000       0.33333000       0.72397000 </v>
    <v>       0.83333000       0.50000000       0.38950000 </v>
    <v>       0.83333000       0.50000000       0.61248000 </v>
    <v>       0.00000000       0.66667000       0.50099000 </v>
    <v>       0.00000000       0.66667000       0.72397000 </v>
    <v>       0.16667000       0.83333000       0.38950000 </v>
    <v>       0.16667000       0.83333000       0.61248000 </v>
    <v>       0.33333000       0.66667000       0.50099000 </v>
    <v>       0.33333000       0.66667000       0.72397000 </v>
    <v>       0.50000000       0.83333000       0.38950000 </v>
    <v>       0.50000000       0.83333000       0.61248000 </v>
    <v>       0.66667000       0.66667000       0.50099000 </v>
    <v>       0.66667000       0.66667000       0.72397000 </v>
    <v>       0.83333000       0.83333000       0.38950000 </v>
    <v>       0.83333000       0.83333000       0.61248000 </v>
    <v>       0.33679000       0.31865000       0.27603000 </v>
   </varray>
  </structure>
  <varray name="primitive_index" >
   <v type="int" >        1 </v>
   <v type="int" >        2 </v>
   <v type="int" >        3 </v>
   <v type="int" >        4 </v>
   <v type="int" >        5 </v>
   <v type="int" >        6 </v>
   <v type="int" >        7 </v>
   <v type="int" >        8 </v>
   <v type="int" >        9 </v>
   <v type="int" >       10 </v>
   <v type="int" >       11 </v>
   <v type="int" >       12 </v>
   <v type="int" >       13 </v>
   <v type="int" >       14 </v>
   <v type="int" >       15 </v>
   <v type="int" >       16 </v>
   <v type="int" >       17 </v>
   <v type="int" >       18 </v>
   <v type="int" >       19 </v>
   <v type="int" >       20 </v>
   <v type="int" >       21 </v>
   <v type="int" >       22 </v>
   <v type="int" >       23 </v>
   <v type="int" >       24 </v>
   <v type="int" >       25 </v>
   <v type="int" >       26 </v>
   <v type="int" >       27 </v>
   <v type="int" >       28 </v>
   <v type="int" >       29 </v>
   <v type="int" >       30 </v>
   <v type="int" >       31 </v>
   <v type="int" >       32 </v>
   <v type="int" >       33 </v>
   <v type="int" >       34 </v>
   <v type="int" >       35 </v>
   <v type="int" >       36 </v>
   <v type="int" >       37 </v>
  </varray>
 </primitive_cell>
 <kpoints>
  <generation param="Gamma">
   <v type="int" name="divisions">       1        1        1 </v>
   <v name="usershift">      0.00000000       0.00000000       0.00000000 </v>
   <v name="genvec1">      1.00000000       0.00000000       0.00000000 </v>
   <v name="genvec2">      0.00000000       1.00000000       0.00000000 </v>
   <v name="genvec3">      0.00000000       0.00000000       1.00000000 </v>
   <v name="shift">      0.00000000       0.00000000       0.00000000 </v>
  </generation>
  <varray name="kpointlist" >
   <v>       0.00000000       0.00000000       0.00000000 </v>
  </varray>
  <varray name="weights" >
   <v>       1.00000000 </v>
  </varray>
 </kpoints>
 <parameters>
  <separator name="general" >
   <i type="string" name="SYSTEM">AIMD-MLFF-ON-THE-FLY</i>
   <i type="logical" name="LCOMPAT"> F  </i>
  </separator>
  <separator name="electronic" >
   <i type="string" name="PREC">normal</i>
   <i name="ENMAX">    400.00000000</i>
   <i name="ENAUG">    291.05200000</i>
   <i name="EDIFF">      0.00001000</i>
   <i type="int" name="IALGO">    38</i>
   <i type="int" name="IWAVPR">    11</i>
   <i type="int" name="NBANDS">   128</i>
   <i type="int" name="NBANDSLOW">    -1</i>
   <i type="int" name="NBANDSHIGH">    -1</i>
   <i name="NELECT">    111.00000000</i>
   <i type="int" name="TURBO">     0</i>
   <i type="int" name="IRESTART">     0</i>
   <i type="int" name="NREBOOT">     0</i>
   <i type="int" name="NMIN">     0</i>
   <i name="EREF">      0.00000000</i>
   <separator name="electronic smearing" >
    <i type="int" name="ISMEAR">     0</i>
    <i name="SIGMA">      0.10000000</i>
    <i name="KSPACING">      0.50000000</i>
    <i type="logical" name="KGAMMA"> T  </i>
    <i type="logical" name="KBLOWUP"> T  </i>
   </separator>
   <separator name="electronic projectors" >
    <i type="logical" name="LREAL"> T  </i>
    <v name="ROPT">     -0.00050000</v>
    <i type="int" name="LMAXPAW">  -100</i>
    <i type="int" name="LMAXMIX">     2</i>
    <i type="logical" name="NLSPLINE"> F  </i>
   </separator>
   <separator name="electronic startup" >
    <i type="int" name="ISTART">     0</i>
    <i type="int" name="ICHARG">     2</i>
    <i type="int" name="INIWAV">     1</i>
   </separator>
   <separator name="electronic spin" >
    <i type="int" name="ISPIN">     1</i>
    <i type="logical" name="LNONCOLLINEAR"> F  </i>
    <v name="MAGMOM">      1.00000000      1.00000000      1.00000000      1.00000000      1.00000000      1.00000000      1.00000000      1.00000000      1.00000000      1.00000000      1.00000000      1.00000000      1.00000000      1.00000000      1.00000000      1.00000000      1.00000000      1.00000000      1.00000000      1.00000000
      1.00000000      1.00000000      1.00000000      1.00000000      1.00000000      1.00000000      1.00000000      1.00000000      1.00000000      1.00000000      1.00000000      1.00000000      1.00000000      1.00000000      1.00000000      1.00000000      1.00000000</v>
    <i name="NUPDOWN">     -1.00000000</i>
    <i type="logical" name="LSORBIT"> F  </i>
    <v name="SAXIS">      0.00000000      0.00000000      1.00000000</v>
    <i type="logical" name="LSPIRAL"> F  </i>
    <v name="QSPIRAL">      0.00000000      0.00000000      0.00000000</v>
    <i type="logical" name="LZEROZ"> F  </i>
   </separator>
   <separator name="electronic exchange-correlation" >
    <i type="logical" name="LASPH"> F  </i>
    <i type="logical" name="LMETAGGA"> F  </i>
   </separator>
   <separator name="electronic convergence" >
    <i type="int" name="NELM">    40</i>
    <i type="int" name="NELMDL">    -5</i>
    <i type="int" name="NELMIN">     2</i>
    <i name="ENINI">    400.00000000</i>
    <separator name="electronic convergence detail" >
     <i type="logical" name="LDIAG"> T  </i>
     <i type="logical" name="LSUBROT"> F  </i>
     <i name="WEIMIN">      0.00100000</i>
     <i name="EBREAK">      0.00000002</i>
     <i name="DEPER">      0.30000000</i>
     <i type="int" name="NRMM">     4</i>
     <i name="TIME">      0.40000000</i>
    </separator>
   </separator>
   <separator name="electronic mixer" >
    <i name="AMIX">      0.40000000</i>
    <i name="BMIX">      1.00000000</i>
    <i name="AMIN">      0.10000000</i>
    <i name="AMIX_MAG">      1.60000000</i>
    <i name="BMIX_MAG">      1.00000000</i>
    <separator name="electronic mixer details" >
     <i type="int" name="IMIX">     4</i>
     <i type="logical" name="MIXFIRST"> F  </i>
     <i type="int" name="MAXMIX">   -45</i>
     <i name="WC">    100.00000000</i>
     <i type="int" name="INIMIX">     1</i>
     <i type="int" name="MIXPRE">     1</i>
     <i type="int" name="MREMOVE">     5</i>
    </separator>
   </separator>
   <separator name="electronic dipolcorrection" >
    <i type="logical" name="LDIPOL"> F  </i>
    <i type="logical" name="LMONO"> F  </i>
    <i type="int" name="IDIPOL">     0</i>
    <i name="EPSILON">      1.00000000</i>
    <v name="DIPOL">   -100.00000000   -100.00000000   -100.00000000</v>
    <i name="EFIELD">      0.00000000</i>
   </separator>
  </separator>
  <separator name="grids" >
   <i type="int" name="NGX">    42</i>
   <i type="int" name="NGY">    42</i>
   <i type="int" name="NGZ">    90</i>
   <i type="int" name="NGXF">    84</i>
   <i type="int" name="NGYF">    84</i>
   <i type="int" name="NGZF">   180</i>
   <i type="logical" name="ADDGRID"> F  </i>
  </separator>
  <separator name="ionic" >
   <i type="int" name="NSW">  3000</i>
   <i type="int" name="IBRION">     0</i>
   <i type="int" name="MDALGO">     2</i>
   <i type="int" name="ISIF">     2</i>
   <i name="PSTRESS">      0.00000000</i>
   <i name="EDIFFG">      0.00010000</i>
   <i type="int" name="NFREE">     0</i>
   <i name="POTIM">      1.00000000</i>
   <i name="SMASS">      0.02974563</i>
   <i name="SCALEE">      1.00000000</i>
  </separator>
  <separator name="ionic md" >
   <i name="TEBEG">    300.00000000</i>
   <i name="TEEND">    300.00000000</i>
   <i type="int" name="NBLOCK">     1</i>
   <i type="int" name="KBLOCK">  3000</i>
   <i type="int" name="NPACO">   256</i>
   <i name="APACO">     10.00000000</i>
  </separator>
  <separator name="symmetry" >
   <i type="int" name="ISYM">     0</i>
   <i name="SYMPREC">      0.00001000</i>
  </separator>
  <separator name="dos" >
   <i type="int" name="LORBIT">     0</i>
   <v name="RWIGS">     -1.00000000</v>
   <i type="int" name="NEDOS">   301</i>
   <i name="EMIN">     10.00000000</i>
   <i name="EMAX">    -10.00000000</i>
   <i name="EFERMI">      0.00000000</i>
  </separator>
  <separator name="writing" >
   <i type="int" name="NWRITE">     2</i>
   <i type="logical" name="LWAVE"> F  </i>
   <i type="logical" name="LDOWNSAMPLE"> F  </i>
   <i type="logical" name="LCHARG"> F  </i>
   <i type="logical" name="LPARD"> F  </i>
   <i type="logical" name="LVTOT"> F  </i>
   <i type="logical" name="LVHAR"> F  </i>
   <i type="logical" name="LELF"> F  </i>
   <i type="logical" name="LOPTICS"> F  </i>
   <v name="STM">      0.00000000      0.00000000      0.00000000      0.00000000      0.00000000      0.00000000      0.00000000</v>
  </separator>
  <separator name="performance" >
   <i type="int" name="NPAR">   128</i>
   <i type="int" name="NSIM">     4</i>
   <i type="int" name="NBLK">    -1</i>
   <i type="logical" name="LPLANE"> T  </i>
   <i type="logical" name="LSCALAPACK"> T  </i>
   <i type="logical" name="LSCAAWARE"> F  </i>
   <i type="logical" name="LSCALU"> F  </i>
   <i type="logical" name="LASYNC"> F  </i>
   <i type="logical" name="LORBITALREAL"> F  </i>
  </separator>
  <separator name="miscellaneous" >
   <i type="int" name="IDIOT">     3</i>
   <i type="int" name="PHON_NSTRUCT">    -1</i>
   <i type="logical" name="LMUSIC"> F  </i>
   <v name="POMASS">     26.98100000</v>
   <v name="DARWINR">      0.00000000</v>
   <v name="DARWINV">      1.00000000</v>
   <i type="logical" name="LCORR"> T  </i>
  </separator>
  <i type="logical" name="GGA_COMPAT"> T  </i>
  <i type="logical" name="LBERRY"> F  </i>
  <i type="int" name="ICORELEVEL">     0</i>
  <i type="logical" name="LDAU"> F  </i>
  <i type="int" name="I_CONSTRAINED_M">     0</i>
  <separator name="electronic exchange-correlation" >
   <i type="string" name="GGA">PE</i>
   <i type="int" name="VOSKOWN">     0</i>
   <i type="logical" name="LHFCALC"> F  </i>
   <i type="string" name="PRECFOCK"></i>
   <i type="logical" name="LSYMGRAD"> F  </i>
   <i type="logical" name="LHFONE"> F  </i>
   <i type="logical" name="LRHFCALC"> F  </i>
   <i type="logical" name="LTHOMAS"> F  </i>
   <i type="logical" name="LMODELHF"> F  </i>
   <i type="logical" name="LFOCKACE"> F  </i>
   <i name="ENCUT4O">     -1.00000000</i>
   <i type="int" name="EXXOEP">     0</i>
   <i type="int" name="FOURORBIT">     0</i>
   <i name="AEXX">      0.00000000</i>
   <i name="HFALPHA">      0.00000000</i>
   <i name="MCALPHA">      0.00000000</i>
   <i name="ALDAX">      1.00000000</i>
   <i name="AGGAX">      1.00000000</i>
   <i name="ALDAC">      1.00000000</i>
   <i name="AGGAC">      1.00000000</i>
   <i type="int" name="NKREDX">     1</i>
   <i type="int" name="NKREDY">     1</i>
   <i type="int" name="NKREDZ">     1</i>
   <i type="logical" name="SHIFTRED"> F  </i>
   <i type="logical" name="ODDONLY"> F  </i>
   <i type="logical" name="EVENONLY"> F  </i>
   <i type="int" name="LMAXFOCK">     0</i>
   <i type="int" name="NMAXFOCKAE">     0</i>
   <i type="logical" name="LFOCKAEDFT"> F  </i>
   <i name="HFSCREEN">      0.00000000</i>
   <i name="HFSCREENC">      0.00000000</i>
   <i type="int" name="NBANDSGWLOW">     0</i>
  </separator>
  <separator name="vdW DFT" >
   <i type="logical" name="LUSE_VDW"> F  </i>
   <i type="int" name="IVDW_NL">     1</i>
   <i type="logical" name="LSPIN_VDW"> F  </i>
   <i name="Zab_VDW">     -0.84910000</i>
   <i name="PARAM1">      0.12340000</i>
   <i name="PARAM2">      1.00000000</i>
   <i name="PARAM3">      0.00000000</i>
  </separator>
  <separator name="model GW" >
   <i type="int" name="MODEL_GW">     0</i>
   <i name="MODEL_EPS0">     21.56281590</i>
   <i name="MODEL_ALPHA">      1.00000000</i>
  </separator>
  <separator name="linear response parameters" >
   <i type="logical" name="LEPSILON"> F  </i>
   <i type="logical" name="LRPA"> F  </i>
   <i type="logical" name="LNABLA"> F  </i>
   <i type="logical" name="LVEL"> F  </i>
   <i name="CSHIFT">      0.10000000</i>
   <i name="OMEGAMAX">     -1.00000000</i>
   <i name="DEG_THRESHOLD">      0.00200000</i>
   <i name="RTIME">     -0.10000000</i>
   <i name="WPLASMAI">      0.00000000</i>
   <v name="DFIELD">      0.00000000      0.00000000      0.00000000</v>
   <v name="WPLASMA">      0.00000000      0.00000000      0.00000000      0.00000000      0.00000000      0.00000000      0.00000000      0.00000000      0.00000000</v>
  </separator>
  <separator name="orbital magnetization" >
   <i type="logical" name="NUCIND"> F  </i>
   <v name="MAGPOS">      0.00000000      0.00000000      0.00000000</v>
   <i type="logical" name="LNICSALL"> T  </i>
   <i type="logical" name="ORBITALMAG"> F  </i>
   <i type="logical" name="LMAGBLOCH"> F  </i>
   <i type="logical" name="LCHIMAG"> F  </i>
   <i type="logical" name="LGAUGE"> T  </i>
   <i type="int" name="MAGATOM">     0</i>
   <v name="MAGDIPOL">      0.00000000      0.00000000      0.00000000</v>
   <v name="AVECCONST">      0.00000000      0.00000000      0.00000000</v>
  </separator>
  <separator name="response functions" >
   <i type="logical" name="LALL_IN_ONE"> F  </i>
   <i type="int" name="IALL_IN_ONE">    -1</i>
   <i type="int" name="NBANDS_WAVE">    -1</i>
   <i type="logical" name="LFINITE_TEMPERATURE"> F  </i>
   <i type="logical" name="LADDER"> F  </i>
   <i type="logical" name="LRPAFORCE"> F  </i>
   <i type="logical" name="LFXC"> F  </i>
   <i type="logical" name="LHARTREE"> T  </i>
   <i type="int" name="IBSE">     0</i>
   <v type="int" name="KPOINT">    -1     0     0     0</v>
   <i type="logical" name="LTCTC"> F  </i>
   <i type="logical" name="LTCTE"> F  </i>
   <i type="logical" name="LTETE"> F  </i>
   <i type="logical" name="LTRIPLET"> F  </i>
   <i type="logical" name="LFXCEPS"> F  </i>
   <i type="logical" name="LFXHEG"> F  </i>
   <i type="int" name="NATURALO">     2</i>
   <i type="logical" name="LHOLEGF"> F  </i>
   <i type="logical" name="L2ORDER"> F  </i>
   <i type="logical" name="LDMP1"> F  </i>
   <i type="logical" name="LMP2LT"> F  </i>
   <i type="logical" name="LSMP2LT"> F  </i>
   <i type="logical" name="LGWLF"> F  </i>
   <i name="ENCUTGW">     -1.60000002</i>
   <i name="ENCUTGWSOFT">     -1.60000002</i>
   <i name="ENCUTLF">     -1.00000000</i>
   <i type="logical" name="LESF_SPLINES"> F  </i>
   <i type="int" name="LMAXMP2">    -1</i>
   <i name="SCISSOR">      0.00000000</i>
   <i type="int" name="NOMEGA">     0</i>
   <i type="int" name="NOMEGAR">     0</i>
   <i type="int" name="NBANDSGW">    -1</i>
   <i type="int" name="NBANDSO">    -1</i>
   <i type="int" name="NBANDSV">    -1</i>
   <i type="int" name="NELMGW">     1</i>
   <i type="int" name="NELMHF">     1</i>
   <i type="int" name="DIM">     3</i>
   <i type="int" name="IESPILON">     4</i>
   <i type="int" name="ANTIRES">     0</i>
   <i name="OMEGAMAX">    -30.00000000</i>
   <i name="OMEGAMIN">    -30.00000000</i>
   <i name="OMEGATL">   -200.00000000</i>
   <i type="int" name="OMEGAGRID">     0</i>
   <i name="CSHIFT">     -0.10000000</i>
   <i type="logical" name="LSELFENERGY"> F  </i>
   <i type="logical" name="LSPECTRAL"> F  </i>
   <i type="logical" name="LSPECTRALGW"> F  </i>
   <i type="logical" name="LSINGLES"> F  </i>
   <i type="logical" name="LFERMIGW"> F  </i>
   <i type="logical" name="ODDONLYGW"> F  </i>
   <i type="logical" name="EVENONLYGW"> F  </i>
   <i type="int" name="NKREDLFX">     1</i>
   <i type="int" name="NKREDLFY">     1</i>
   <i type="int" name="NKREDLFZ">     1</i>
   <i type="int" name="MAXMEM">  2800</i>
   <i type="int" name="TELESCOPE">     0</i>
   <i type="int" name="NTAUPAR">    -1</i>
   <i type="int" name="NOMEGAPAR">    -1</i>
   <i name="DAMP_NEWTON">      0.80000001</i>
   <i name="LAMBDA">      1.00000000</i>
  </separator>
  <separator name="External order field" >
   <i name="OFIELD_KAPPA">      0.00000000</i>
   <v name="OFIELD_K">      0.00000000      0.00000000      0.00000000</v>
   <i name="OFIELD_Q6_NEAR">      0.00000000</i>
   <i name="OFIELD_Q6_FAR">      0.00000000</i>
   <i name="OFIELD_A">      0.00000000</i>
  </separator>
  <separator name="optional k-points parameters" >
   <i type="int" name="KPOINTS_OPT_MODE">     1</i>
   <i type="logical" name="LKPOINTS_OPT"> F  </i>
  </separator>
  <separator name="solvation model" >
   <i type="logical" name="LSOL"> F  </i>
  </separator>
 </parameters>
 <atominfo>
  <atoms>      37 </atoms>
  <types>       1 </types>
  <array name="atoms" >
   <dimension dim="1">ion</dimension>
   <field type="string">element</field>
   <field type="int">atomtype</field>
   <set>
    <rc><c>Al</c><c>   1</c></rc>
    <rc><c>Al</c><c>   1</c></rc>
    <rc><c>Al</c><c>   1</c></rc>
    <rc><c>Al</c><c>   1</c></rc>
    <rc><c>Al</c><c>   1</c></rc>
    <rc><c>Al</c><c>   1</c></rc>
    <rc><c>Al</c><c>   1</c></rc>
    <rc><c>Al</c><c>   1</c></rc>
    <rc><c>Al</c><c>   1</c></rc>
    <rc><c>Al</c><c>   1</c></rc>
    <rc><c>Al</c><c>   1</c></rc>
    <rc><c>Al</c><c>   1</c></rc>
    <rc><c>Al</c><c>   1</c></rc>
    <rc><c>Al</c><c>   1</c></rc>
    <rc><c>Al</c><c>   1</c></rc>
    <rc><c>Al</c><c>   1</c></rc>
    <rc><c>Al</c><c>   1</c></rc>
    <rc><c>Al</c><c>   1</c></rc>
    <rc><c>Al</c><c>   1</c></rc>
    <rc><c>Al</c><c>   1</c></rc>
    <rc><c>Al</c><c>   1</c></rc>
    <rc><c>Al</c><c>   1</c></rc>
    <rc><c>Al</c><c>   1</c></rc>
    <rc><c>Al</c><c>   1</c></rc>
    <rc><c>Al</c><c>   1</c></rc>
    <rc><c>Al</c><c>   1</c></rc>
    <rc><c>Al</c><c>   1</c></rc>
    <rc><c>Al</c><c>   1</c></rc>
    <rc><c>Al</c><c>   1</c></rc>
    <rc><c>Al</c><c>   1</c></rc>
    <rc><c>Al</c><c>   1</c></rc>
    <rc><c>Al</c><c>   1</c></rc>
    <rc><c>Al</c><c>   1</c></rc>
    <rc><c>Al</c><c>   1</c></rc>
    <rc><c>Al</c><c>   1</c></rc>
    <rc><c>Al</c><c>   1</c></rc>
    <rc><c>Al</c><c>   1</c></rc>
   </set>
  </array>
  <array name="atomtypes" >
   <dimension dim="1">type</dimension>
   <field type="int">atomspertype</field>
   <field type="string">element</field>
   <field>mass</field>
   <field>valence</field>
   <field type="string">pseudopotential</field>
   <set>
    <rc><c>  37</c><c>Al</c><c>     26.98100000</c><c>      3.00000000</c><c>  PAW_PBE Al 04Jan2001                  </c></rc>
   </set>
  </array>
 </atominfo>
 <structure name="initialpos" >
  <crystal>
   <varray name="basis" >
    <v>       8.56790000       0.00000000       0.00000000 </v>
    <v>       0.00000000       8.56790000       0.00000000 </v>
    <v>       0.00000000       0.00000000      18.11370000 </v>
   </varray>
   <i name="volume">   1329.70698049 </i>
   <varray name="rec_basis" >
    <v>       0.11671471       0.00000000       0.00000000 </v>
    <v>       0.00000000       0.11671471       0.00000000 </v>
    <v>       0.00000000       0.00000000       0.05520683 </v>
   </varray>
  </crystal>
  <varray name="positions" >
   <v>       0.00000000       0.00000000       0.50099000 </v>
   <v>       0.00000000       0.00000000       0.72397000 </v>
   <v>       0.16667000       0.16667000       0.38950000 </v>
   <v>       0.16667000       0.16667000       0.61248000 </v>
   <v>       0.33333000       0.00000000       0.50099000 </v>
   <v>       0.33333000       0.00000000       0.72397000 </v>
   <v>       0.50000000       0.16667000       0.38950000 </v>
   <v>       0.50000000       0.16667000       0.61248000 </v>
   <v>       0.66667000       0.00000000       0.50099000 </v>
   <v>       0.66667000       0.00000000       0.72397000 </v>
   <v>       0.83333000       0.16667000       0.38950000 </v>
   <v>       0.83333000       0.16667000       0.61248000 </v>
   <v>       0.00000000       0.33333000       0.50099000 </v>
   <v>       0.00000000       0.33333000       0.72397000 </v>
   <v>       0.16667000       0.50000000       0.38950000 </v>
   <v>       0.16667000       0.50000000       0.61248000 </v>
   <v>       0.33333000       0.33333000       0.50099000 </v>
   <v>       0.33333000       0.33333000       0.72397000 </v>
   <v>       0.50000000       0.50000000       0.38950000 </v>
   <v>       0.50000000       0.50000000       0.61248000 </v>
   <v>       0.66667000       0.33333000       0.50099000 </v>
   <v>       0.66667000       0.33333000       0.72397000 </v>
   <v>       0.83333000       0.50000000       0.38950000 </v>
   <v>       0.83333000       0.50000000       0.61248000 </v>
   <v>       0.00000000       0.66667000       0.50099000 </v>
   <v>       0.00000000       0.66667000       0.72397000 </v>
   <v>       0.16667000       0.83333000       0.38950000 </v>
   <v>       0.16667000       0.83333000       0.61248000 </v>
   <v>       0.33333000       0.66667000       0.50099000 </v>
   <v>       0.33333000       0.66667000       0.72397000 </v>
   <v>       0.50000000       0.83333000       0.38950000 </v>
   <v>       0.50000000       0.83333000       0.61248000 </v>
   <v>       0.66667000       0.66667000       0.50099000 </v>
   <v>       0.66667000       0.66667000       0.72397000 </v>
   <v>       0.83333000       0.83333000       0.38950000 </v>
   <v>       0.83333000       0.83333000       0.61248000 </v>
   <v>       0.33679000       0.31865000       0.27603000 </v>
  </varray>
  <varray name="velocities" >
   <v>      -0.00024317      -0.00001237       0.00012442 </v>
   <v>       0.00050517       0.00023145       0.00013833 </v>
   <v>       0.00020073      -0.00016488      -0.00001944 </v>
   <v>       0.00016163       0.00023507      -0.00023449 </v>
   <v>      -0.00004878      -0.00018294       0.00015390 </v>
   <v>       0.00034244      -0.00007211       0.00029681 </v>
   <v>      -0.00014324       0.00077014       0.00005386 </v>
   <v>       0.00002048      -0.00041411       0.00002649 </v>
   <v>      -0.00016123      -0.00054665      -0.00007283 </v>
   <v>      -0.00013479       0.00034836       0.00041055 </v>
   <v>       0.00012080      -0.00031356      -0.00000914 </v>
   <v>      -0.00032945      -0.00017003       0.00011702 </v>
   <v>      -0.00053650      -0.00006528       0.00006221 </v>
   <v>      -0.00008789      -0.00001386       0.00013160 </v>
   <v>      -0.00010415       0.00021082      -0.00023120 </v>
   <v>      -0.00044886       0.00007250      -0.00006214 </v>
   <v>      -0.00039604      -0.00069948      -0.00016703 </v>
   <v>      -0.00028277       0.00014925      -0.00006423 </v>
   <v>       0.00059283       0.00046954      -0.00027927 </v>
   <v>      -0.00060174      -0.00029716       0.00010934 </v>
   <v>      -0.00021163      -0.00094780      -0.00013632 </v>
   <v>      -0.00007407      -0.00021772      -0.00002045 </v>
   <v>       0.00026527       0.00013682       0.00014153 </v>
   <v>       0.00002106       0.00021191      -0.00000506 </v>
   <v>      -0.00001503      -0.00028896       0.00011454 </v>
   <v>       0.00018659      -0.00031485       0.00008549 </v>
   <v>      -0.00000516       0.00017164      -0.00014590 </v>
   <v>       0.00075878       0.00029887      -0.00012098 </v>
   <v>       0.00049359       0.00022899       0.00024360 </v>
   <v>      -0.00040109       0.00027640       0.00002114 </v>
   <v>      -0.00006427       0.00040235       0.00032347 </v>
   <v>       0.00024220       0.00015820      -0.00028599 </v>
   <v>      -0.00002827      -0.00003112       0.00005633 </v>
   <v>       0.00015740       0.00067683      -0.00019959 </v>
   <v>      -0.00045713      -0.00032350      -0.00016303 </v>
   <v>       0.00017946       0.00023469      -0.00003835 </v>
   <v>       0.00052685      -0.00020746      -0.00035522 </v>
  </varray>
 </structure>
 <calculation>
  <scstep>
   <time name="dav">    0.56    0.40</time>
   <time name="total">    0.59    0.43</time>
   <energy>
    <i name="alphaZ">     -3.45806318 </i>
    <i name="ewald">   4207.66579448 </i>
    <i name="hartreedc">  -6095.20777570 </i>
    <i name="XCdc">   -980.83314476 </i>
    <i name="pawpsdc">   2449.40581366 </i>
    <i name="pawaedc">  -1267.08796800 </i>
    <i name="eentropy">     -0.07427891 </i>
    <i name="bandstr">   -213.59904347 </i>
    <i name="atom">   1980.91170990 </i>
    <i name="e_fr_energy">     77.72304402 </i>
    <i name="e_wo_entrp">     77.79732293 </i>
    <i name="e_0_energy">     77.76018347 </i>
   </energy>
  </scstep>
  <scstep>
   <time name="dav">    1.02    0.72</time>
   <time name="total">    1.02    0.72</time>
   <energy>
    <i name="e_fr_energy">   -128.01638562 </i>
    <i name="e_wo_entrp">   -127.92307026 </i>
    <i name="e_0_energy">   -127.96972794 </i>
   </energy>
  </scstep>
  <scstep>
   <time name="dav">    1.06    0.76</time>
   <time name="total">    1.06    0.76</time>
   <energy>
    <i name="e_fr_energy">   -130.14732931 </i>
    <i name="e_wo_entrp">   -130.05454917 </i>
    <i name="e_0_energy">   -130.10093924 </i>
   </energy>
  </scstep>
  <scstep>
   <time name="dav">    1.81    1.26</time>
   <time name="total">    1.81    1.26</time>
   <energy>
    <i name="e_fr_energy">   -130.16478744 </i>
    <i name="e_wo_entrp">   -130.07200623 </i>
    <i name="e_0_energy">   -130.11839683 </i>
   </energy>
  </scstep>
  <scstep>
   <time name="dav">    0.55    0.41</time>
   <time name="total">    0.57    0.43</time>
   <energy>
    <i name="e_fr_energy">   -130.16488691 </i>
    <i name="e_wo_entrp">   -130.07210570 </i>
    <i name="e_0_energy">   -130.11849630 </i>
   </energy>
  </scstep>
  <scstep>
   <time name="dav">    1.86    1.28</time>
   <time name="total">    1.90    1.34</time>
   <energy>
    <i name="e_fr_energy">   -123.82434600 </i>
    <i name="e_wo_entrp">   -123.64491970 </i>
    <i name="e_0_energy">   -123.73463285 </i>
   </energy>
  </scstep>
  <scstep>
   <time name="dav">    0.52    0.37</time>
   <time name="total">    0.57    0.43</time>
   <energy>
    <i name="e_fr_energy">   -120.45680160 </i>
    <i name="e_wo_entrp">   -120.24774517 </i>
    <i name="e_0_energy">   -120.35227339 </i>
   </energy>
  </scstep>
  <scstep>
   <time name="dav">    1.05    0.72</time>
   <time name="total">    1.09    0.78</time>
   <energy>
    <i name="e_fr_energy">   -120.21337758 </i>
    <i name="e_wo_entrp">   -119.86321769 </i>
    <i name="e_0_energy">   -120.03829764 </i>
   </energy>
  </scstep>
  <scstep>
   <time name="dav">    1.96    1.32</time>
   <time name="total">    2.00    1.37</time>
   <energy>
    <i name="e_fr_energy">   -120.12020638 </i>
    <i name="e_wo_entrp">   -119.81125132 </i>
    <i name="e_0_energy">   -119.96572885 </i>
   </energy>
  </scstep>
  <scstep>
   <time name="dav">    1.06    0.73</time>
   <time name="total">    1.10    0.78</time>
   <energy>
    <i name="e_fr_energy">   -120.06427716 </i>
    <i name="e_wo_entrp">   -119.78322980 </i>
    <i name="e_0_energy">   -119.92375348 </i>
   </energy>
  </scstep>
  <scstep>
   <time name="dav">    1.12    0.77</time>
   <time name="total">    1.16    0.82</time>
   <energy>
    <i name="e_fr_energy">   -120.04073135 </i>
    <i name="e_wo_entrp">   -119.72794582 </i>
    <i name="e_0_energy">   -119.88433859 </i>
   </energy>
  </scstep>
  <scstep>
   <time name="dav">    1.16    0.79</time>
   <time name="total">    1.21    0.85</time>
   <energy>
    <i name="e_fr_energy">   -120.03580915 </i>
    <i name="e_wo_entrp">   -119.73367444 </i>
    <i name="e_0_energy">   -119.88474180 </i>
   </energy>
  </scstep>
  <scstep>
   <time name="dav">    2.16    1.46</time>
   <time name="total">    2.21    1.51</time>
   <energy>
    <i name="e_fr_energy">   -120.03127275 </i>
    <i name="e_wo_entrp">   -119.72287376 </i>
    <i name="e_0_energy">   -119.87707325 </i>
   </energy>
  </scstep>
  <scstep>
   <time name="dav">    0.58    0.41</time>
   <time name="total">    0.63    0.47</time>
   <energy>
    <i name="e_fr_energy">   -120.03167077 </i>
    <i name="e_wo_entrp">   -119.72280274 </i>
    <i name="e_0_energy">   -119.87723675 </i>
   </energy>
  </scstep>
  <scstep>
   <time name="dav">    1.22    0.83</time>
   <time name="total">    1.26    0.89</time>
   <energy>
    <i name="e_fr_energy">   -120.03363574 </i>
    <i name="e_wo_entrp">   -119.72606333 </i>
    <i name="e_0_energy">   -119.87984954 </i>
   </energy>
  </scstep>
  <scstep>
   <time name="dav">    0.61    0.42</time>
   <time name="total">    0.66    0.48</time>
   <energy>
    <i name="e_fr_energy">   -120.03608337 </i>
    <i name="e_wo_entrp">   -119.72629548 </i>
    <i name="e_0_energy">   -119.88118942 </i>
   </energy>
  </scstep>
  <scstep>
   <time name="dav">    2.16    1.45</time>
   <time name="total">    2.20    1.50</time>
   <energy>
    <i name="e_fr_energy">   -120.03747433 </i>
    <i name="e_wo_entrp">   -119.72843052 </i>
    <i name="e_0_energy">   -119.88295243 </i>
   </energy>
  </scstep>
  <scstep>
   <time name="dav">    1.13    0.76</time>
   <time name="total">    1.17    0.82</time>
   <energy>
    <i name="e_fr_energy">   -120.03820639 </i>
    <i name="e_wo_entrp">   -119.72930302 </i>
    <i name="e_0_energy">   -119.88375470 </i>
   </energy>
  </scstep>
  <scstep>
   <time name="dav">    1.17    0.79</time>
   <time name="total">    1.21    0.84</time>
   <energy>
    <i name="e_fr_energy">   -120.03859270 </i>
    <i name="e_wo_entrp">   -119.72942329 </i>
    <i name="e_0_energy">   -119.88400800 </i>
   </energy>
  </scstep>
  <scstep>
   <time name="dav">    0.61    0.43</time>
   <time name="total">    0.65    0.48</time>
   <energy>
    <i name="e_fr_energy">   -120.03867685 </i>
    <i name="e_wo_entrp">   -119.72950562 </i>
    <i name="e_0_energy">   -119.88409124 </i>
   </energy>
  </scstep>
  <scstep>
   <time name="dav">    1.20    0.81</time>
   <time name="total">    1.24    0.86</time>
   <energy>
    <i name="e_fr_energy">   -120.03869928 </i>
    <i name="e_wo_entrp">   -119.72949919 </i>
    <i name="e_0_energy">   -119.88409923 </i>
   </energy>
  </scstep>
  <scstep>
   <time name="dav">    0.64    0.48</time>
   <time name="total">    0.67    0.51</time>
   <energy>
    <i name="alphaZ">     -3.45806318 </i>
    <i name="ewald">   4207.66579448 </i>
    <i name="hartreedc">  -6235.51276019 </i>
    <i name="XCdc">   -975.82270540 </i>
    <i name="pawpsdc">   4851.67731692 </i>
    <i name="pawaedc">  -3669.59179499 </i>
    <i name="eentropy">     -0.30920211 </i>
    <i name="bandstr">   -275.59900196 </i>
    <i name="atom">   1980.91170990 </i>
    <i name="e_fr_energy">   -120.03870653 </i>
    <i name="e_wo_entrp">   -119.72950442 </i>
    <i name="e_0_energy">   -119.88410547 </i>
   </energy>
  </scstep>
  <structure>
   <crystal>
    <varray name="basis" >
     <v>       8.56790000       0.00000000       0.00000000 </v>
     <v>       0.00000000       8.56790000       0.00000000 </v>
     <v>       0.00000000       0.00000000      18.11370000 </v>
    </varray>
    <i name="volume">   1329.70698049 </i>
    <varray name="rec_basis" >
     <v>       0.11671471       0.00000000       0.00000000 </v>
     <v>       0.00000000       0.11671471       0.00000000 </v>
     <v>       0.00000000       0.00000000       0.05520683 </v>
    </varray>
   </crystal>
   <varray name="positions" >
    <v>       0.00000000       0.00000000       0.50099000 </v>
    <v>       0.00000000       0.00000000       0.72397000 </v>
    <v>       0.16667000       0.16667000       0.38950000 </v>
    <v>       0.16667000       0.16667000       0.61248000 </v>
    <v>       0.33333000       0.00000000       0.50099000 </v>
    <v>       0.33333000       0.00000000       0.72397000 </v>
    <v>       0.50000000       0.16667000       0.38950000 </v>
    <v>       0.50000000       0.16667000       0.61248000 </v>
    <v>       0.66667000       0.00000000       0.50099000 </v>
    <v>       0.66667000       0.00000000       0.72397000 </v>
    <v>       0.83333000       0.16667000       0.38950000 </v>
    <v>       0.83333000       0.16667000       0.61248000 </v>
    <v>       0.00000000       0.33333000       0.50099000 </v>
    <v>       0.00000000       0.33333000       0.72397000 </v>
    <v>       0.16667000       0.50000000       0.38950000 </v>
    <v>       0.16667000       0.50000000       0.61248000 </v>
    <v>       0.33333000       0.33333000       0.50099000 </v>
    <v>       0.33333000       0.33333000       0.72397000 </v>
    <v>       0.50000000       0.50000000       0.38950000 </v>
    <v>       0.50000000       0.50000000       0.61248000 </v>
    <v>       0.66667000       0.33333000       0.50099000 </v>
    <v>       0.66667000       0.33333000       0.72397000 </v>
    <v>       0.83333000       0.50000000       0.38950000 </v>
    <v>       0.83333000       0.50000000       0.61248000 </v>
    <v>       0.00000000       0.66667000       0.50099000 </v>
    <v>       0.00000000       0.66667000       0.72397000 </v>
    <v>       0.16667000       0.83333000       0.38950000 </v>
    <v>       0.16667000       0.83333000       0.61248000 </v>
    <v>       0.33333000       0.66667000       0.50099000 </v>
    <v>       0.33333000       0.66667000       0.72397000 </v>
    <v>       0.50000000       0.83333000       0.38950000 </v>
    <v>       0.50000000       0.83333000       0.61248000 </v>
    <v>       0.66667000       0.66667000       0.50099000 </v>
    <v>       0.66667000       0.66667000       0.72397000 </v>
    <v>       0.83333000       0.83333000       0.38950000 </v>
    <v>       0.83333000       0.83333000       0.61248000 </v>
    <v>       0.33679000       0.31865000       0.27603000 </v>
   </varray>
  </structure>
  <varray name="forces" >
   <v>       0.03665431       0.02153409      -0.45617810 </v>
   <v>       0.11482568       0.09793262      -0.36367328 </v>
   <v>      -0.07153254      -0.07615650       0.08230369 </v>
   <v>      -0.12629770      -0.13513245       0.46025642 </v>
   <v>      -0.00427368      -0.01768097      -0.72544168 </v>
   <v>      -0.00388486       0.01825841      -0.45414467 </v>
   <v>       0.10366483      -0.10457824       0.09908144 </v>
   <v>       0.12635438      -0.13140016       0.46128373 </v>
   <v>      -0.03338739       0.02330772      -0.46272810 </v>
   <v>      -0.11003549       0.09963760      -0.36161154 </v>
   <v>      -0.00352169      -0.05273432       0.63748707 </v>
   <v>      -0.00496537      -0.08698345       0.60998111 </v>
   <v>       0.02005985       0.01807029      -0.73931446 </v>
   <v>       0.03645722       0.01658226      -0.44336722 </v>
   <v>       0.01949974      -0.02777035       0.06853598 </v>
   <v>      -0.14338929       0.13626645       0.45888089 </v>
   <v>      -0.00743888       0.03213248      -0.69780855 </v>
   <v>      -0.00621746       0.02630657      -0.61562102 </v>
   <v>       0.00123807      -0.01062154       0.06493017 </v>
   <v>       0.14280259       0.13189005       0.45891663 </v>
   <v>      -0.00659616       0.01825119      -0.73451391 </v>
   <v>      -0.03009966       0.01661126      -0.44779174 </v>
   <v>      -0.00384769       0.02175224       0.62956969 </v>
   <v>      -0.00474741       0.09294092       0.59883647 </v>
   <v>       0.02876670      -0.03559285      -0.43192253 </v>
   <v>       0.10717106      -0.11759577      -0.38031532 </v>
   <v>      -0.03406518       0.01620560       0.63245138 </v>
   <v>      -0.09197872       0.02047832       0.60165472 </v>
   <v>      -0.00408946      -0.03996109      -0.74583228 </v>
   <v>      -0.00385085      -0.04512428      -0.43617560 </v>
   <v>       0.04134184       0.01589615       0.63430056 </v>
   <v>       0.09039971       0.02068451       0.60424273 </v>
   <v>      -0.02555918      -0.03742817      -0.43712107 </v>
   <v>      -0.10268896      -0.11960140      -0.37535768 </v>
   <v>      -0.00329624       0.01409911       0.60389258 </v>
   <v>      -0.00149052       0.00687139       0.51239568 </v>
   <v>      -0.04188512       0.17077175       1.11804411 </v>
  </varray>
  <varray name="stress" >
   <v>     -18.01439466      -0.01188609       0.05992948 </v>
   <v>      -0.01188609     -18.03312083      -0.25323611 </v>
   <v>       0.05992947      -0.25323615     -21.59763413 </v>
  </varray>
  <energy>
   <i name="e_fr_energy">   -120.03870653 </i>
   <i name="e_wo_entrp">   -119.72950442 </i>
   <i name="e_0_energy">   -119.88410547 </i>
   <i name="kinetic">      1.39464412 </i>
   <i name="lattice kinetic">      0.00000000 </i>
   <i name="nosepot">      0.00000000 </i>
   <i name="nosekinetic">      0.00000000 </i>
   <i name="total">   -118.64406240 </i>
  </energy>
  <time name="totalsc">   26.33   18.70</time>
 </calculation>
 <calculation>
  <scstep>
   <time name="dav">    0.67    0.49</time>
   <time name="total">    0.71    0.53</time>
   <energy>
    <i name="alphaZ">     -3.45806318 </i>
    <i name="ewald">   4208.59315603 </i>
    <i name="hartreedc">  -6236.40689928 </i>
    <i name="XCdc">   -975.81936128 </i>
    <i name="pawpsdc">   4851.65812614 </i>
    <i name="pawaedc">  -3669.57258193 </i>
    <i name="eentropy">     -0.31267499 </i>
    <i name="bandstr">   -275.62768104 </i>
    <i name="atom">   1980.91170990 </i>
    <i name="e_fr_energy">   -120.03426964 </i>
    <i name="e_wo_entrp">   -119.72159464 </i>
    <i name="e_0_energy">   -119.87793214 </i>
   </energy>
  </scstep>
  <scstep>
   <time name="dav">    1.21    0.82</time>
   <time name="total">    1.25    0.88</time>
   <energy>
    <i name="e_fr_energy">   -120.03360678 </i>
    <i name="e_wo_entrp">   -119.72412575 </i>
    <i name="e_0_energy">   -119.87886626 </i>
   </energy>
  </scstep>
  <scstep>
   <time name="dav">    1.20    0.81</time>
   <time name="total">    1.25    0.87</time>
   <energy>
    <i name="e_fr_energy">   -120.03325464 </i>
    <i name="e_wo_entrp">   -119.72209771 </i>
    <i name="e_0_energy">   -119.87767617 </i>
   </energy>
  </scstep>
  <scstep>
   <time name="dav">    1.20    0.82</time>
   <time name="total">    1.25    0.88</time>
   <energy>
    <i name="e_fr_energy">   -120.03318076 </i>
    <i name="e_wo_entrp">   -119.72202837 </i>
    <i name="e_0_energy">   -119.87760456 </i>
   </energy>
  </scstep>
  <scstep>
   <time name="dav">    0.65    0.46</time>
   <time name="total">    0.70    0.53</time>
   <energy>
    <i name="e_fr_energy">   -120.03317011 </i>
    <i name="e_wo_entrp">   -119.72238857 </i>
    <i name="e_0_energy">   -119.87777934 </i>
   </energy>
  </scstep>
  <scstep>
   <time name="dav">    0.60    0.42</time>
   <time name="total">    0.63    0.46</time>
   <energy>
    <i name="alphaZ">     -3.45806318 </i>
    <i name="ewald">   4208.59315603 </i>
    <i name="hartreedc">  -6236.42167186 </i>
    <i name="XCdc">   -975.82062844 </i>
    <i name="pawpsdc">   4851.50413633 </i>
    <i name="pawaedc">  -3669.41878745 </i>
    <i name="eentropy">     -0.31129203 </i>
    <i name="bandstr">   -275.61173133 </i>
    <i name="atom">   1980.91170990 </i>
    <i name="e_fr_energy">   -120.03317204 </i>
    <i name="e_wo_entrp">   -119.72188001 </i>
    <i name="e_0_energy">   -119.87752603 </i>
   </energy>
  </scstep>
  <structure>
   <crystal>
    <varray name="basis" >
     <v>       8.56790000       0.00000000       0.00000000 </v>
     <v>       0.00000000       8.56790000       0.00000000 </v>
     <v>       0.00000000       0.00000000      18.11370000 </v>
    </varray>
    <i name="volume">   1329.70698049 </i>
    <varray name="rec_basis" >
     <v>       0.11671471       0.00000000       0.00000000 </v>
     <v>       0.00000000       0.11671471       0.00000000 </v>
     <v>       0.00000000       0.00000000       0.05520683 </v>
    </varray>
   </crystal>
   <varray name="positions" >
    <v>       0.00028156       0.99950001       0.50107566 </v>
    <v>       0.99960863       0.00044077       0.72398863 </v>
    <v>       0.16679111       0.16635836       0.38941435 </v>
    <v>       0.16605343       0.16674646       0.61266292 </v>
    <v>       0.33337591       0.99978194       0.50105432 </v>
    <v>       0.33252980       0.99951808       0.72374774 </v>
    <v>       0.49991896       0.16627081       0.38949760 </v>
    <v>       0.50029758       0.16645218       0.61251550 </v>
    <v>       0.66657600       0.00022730       0.50119686 </v>
    <v>       0.66670404       0.99945872       0.72420273 </v>
    <v>       0.83322476       0.16755278       0.38935455 </v>
    <v>       0.83355771       0.16717531       0.61254067 </v>
    <v>       0.00002762       0.33456718       0.50136638 </v>
    <v>       0.99990810       0.33320095       0.72395174 </v>
    <v>       0.16695210       0.49951993       0.38970506 </v>
    <v>       0.16686983       0.50007130       0.61259844 </v>
    <v>       0.33283992       0.33339232       0.50109851 </v>
    <v>       0.33339784       0.33352187       0.72370693 </v>
    <v>       0.50049666       0.49980628       0.38933196 </v>
    <v>       0.50003851       0.50049178       0.61261873 </v>
    <v>       0.66671176       0.33380243       0.50105943 </v>
    <v>       0.66694445       0.33369198       0.72393564 </v>
    <v>       0.83377738       0.50022967       0.38952981 </v>
    <v>       0.83311387       0.50049856       0.61259635 </v>
    <v>       0.00010371       0.66688920       0.50089164 </v>
    <v>       0.99998802       0.66642120       0.72384015 </v>
    <v>       0.16685528       0.83327811       0.38926893 </v>
    <v>       0.16663906       0.83291364       0.61243877 </v>
    <v>       0.33369979       0.66710167       0.50084054 </v>
    <v>       0.33301494       0.66660962       0.72377504 </v>
    <v>       0.50000058       0.83343307       0.38946292 </v>
    <v>       0.50027436       0.83292680       0.61244915 </v>
    <v>       0.66646013       0.66618068       0.50125596 </v>
    <v>       0.66664963       0.66653857       0.72383308 </v>
    <v>       0.83339739       0.83259436       0.38937373 </v>
    <v>       0.83297458       0.83284688       0.61231052 </v>
    <v>       0.33673500       0.31863922       0.27599907 </v>
   </varray>
  </structure>
  <varray name="forces" >
   <v>       0.03201662       0.05056182      -0.45602564 </v>
   <v>       0.11090184       0.08250177      -0.36478715 </v>
   <v>      -0.08053167      -0.07228780       0.08601885 </v>
   <v>      -0.10023998      -0.14265624       0.44266260 </v>
   <v>      -0.00308302      -0.00478331      -0.72604887 </v>
   <v>       0.00384769       0.02896176      -0.45848510 </v>
   <v>       0.10719333      -0.09028163       0.10662674 </v>
   <v>       0.10423262      -0.11954872       0.45505541 </v>
   <v>      -0.02352084       0.01842857      -0.47834469 </v>
   <v>      -0.10980420       0.10646355      -0.36269378 </v>
   <v>       0.00419282      -0.06348927       0.64987617 </v>
   <v>      -0.01727394      -0.10333153       0.59756323 </v>
   <v>       0.01555577      -0.02179416      -0.75838573 </v>
   <v>       0.03186579       0.01932527      -0.43160663 </v>
   <v>       0.02108372      -0.01739208       0.07148199 </v>
   <v>      -0.15646553       0.13115887       0.43890430 </v>
   <v>       0.01755468       0.02088632      -0.68873757 </v>
   <v>      -0.00299783      -0.00271274      -0.61536220 </v>
   <v>      -0.00535891      -0.01106266       0.06534552 </v>
   <v>       0.14320276       0.11556640       0.44035361 </v>
   <v>      -0.00743804       0.00420574      -0.73378951 </v>
   <v>      -0.03442658       0.01093235      -0.44408215 </v>
   <v>      -0.01419935       0.01074283       0.63803482 </v>
   <v>      -0.00892073       0.07194059       0.58775129 </v>
   <v>       0.03837654      -0.04437619      -0.42732304 </v>
   <v>       0.10552744      -0.10942471      -0.37161991 </v>
   <v>      -0.03103217       0.02449841       0.64112812 </v>
   <v>      -0.09819886       0.03917041       0.59339158 </v>
   <v>      -0.02114477      -0.04741148      -0.73223880 </v>
   <v>       0.00399693      -0.02370889      -0.42974310 </v>
   <v>       0.04812652       0.01832314       0.63901057 </v>
   <v>       0.07207919       0.02433540       0.60074734 </v>
   <v>      -0.01769675      -0.02194145      -0.45519863 </v>
   <v>      -0.10817461      -0.11430405      -0.36929578 </v>
   <v>      -0.01285302       0.04027777       0.60948557 </v>
   <v>       0.01145489       0.03173683       0.51692958 </v>
   <v>      -0.03712906       0.16661654       1.11881479 </v>
  </varray>
  <varray name="stress" >
   <v>     -17.85848069       0.04004196      -0.06143310 </v>
   <v>       0.04004195     -17.86196335      -0.33390091 </v>
   <v>      -0.06143312      -0.33390094     -21.64239642 </v>
  </varray>
  <energy>
   <i name="e_fr_energy">   -120.03317204 </i>
   <i name="e_wo_entrp">   -119.72188001 </i>
   <i name="e_0_energy">   -119.87752603 </i>
   <i name="kinetic">      1.39053877 </i>
   <i name="lattice kinetic">      0.00000000 </i>
   <i name="nosepot">     -0.00003073 </i>
   <i name="nosekinetic">      0.00000005 </i>
   <i name="total">   -118.64266395 </i>
  </energy>
  <time name="totalsc">    6.10    4.42</time>
 </calculation>
 <calculation>
  <scstep>
   <time name="dav">    0.62    0.43</time>
   <time name="total">    0.66    0.47</time>
   <energy>
    <i name="alphaZ">     -3.45806318 </i>
    <i name="ewald">   4209.84141286 </i>
    <i name="hartreedc">  -6237.64326986 </i>
    <i name="XCdc">   -975.81396738 </i>
    <i name="pawpsdc">   4851.72695257 </i>
    <i name="pawaedc">  -3669.64164388 </i>
    <i name="eentropy">     -0.31255580 </i>
    <i name="bandstr">   -275.64040894 </i>
    <i name="atom">   1980.91170990 </i>
    <i name="e_fr_energy">   -120.02983371 </i>
    <i name="e_wo_entrp">   -119.71727791 </i>
    <i name="e_0_energy">   -119.87355581 </i>
   </energy>
  </scstep>
  <scstep>
   <time name="dav">    1.18    0.80</time>
   <time name="total">    1.23    0.85</time>
   <energy>
    <i name="e_fr_energy">   -120.02917802 </i>
    <i name="e_wo_entrp">   -119.71875287 </i>
    <i name="e_0_energy">   -119.87396545 </i>
   </energy>
  </scstep>
  <scstep>
   <time name="dav">    1.17    0.79</time>
   <time name="total">    1.22    0.85</time>
   <energy>
    <i name="e_fr_energy">   -120.02882852 </i>
    <i name="e_wo_entrp">   -119.71683820 </i>
    <i name="e_0_energy">   -119.87283336 </i>
   </energy>
  </scstep>
  <scstep>
   <time name="dav">    1.19    0.80</time>
   <time name="total">    1.24    0.86</time>
   <energy>
    <i name="e_fr_energy">   -120.02875342 </i>
    <i name="e_wo_entrp">   -119.71678937 </i>
    <i name="e_0_energy">   -119.87277140 </i>
   </energy>
  </scstep>
  <scstep>
   <time name="dav">    0.60    0.41</time>
   <time name="total">    0.64    0.47</time>
   <energy>
    <i name="e_fr_energy">   -120.02874373 </i>
    <i name="e_wo_entrp">   -119.71711228 </i>
    <i name="e_0_energy">   -119.87292800 </i>
   </energy>
  </scstep>
  <scstep>
   <time name="dav">    0.62    0.43</time>
   <time name="total">    0.65    0.47</time>
   <energy>
    <i name="alphaZ">     -3.45806318 </i>
    <i name="ewald">   4209.84141286 </i>
    <i name="hartreedc">  -6237.69260174 </i>
    <i name="XCdc">   -975.81367810 </i>
    <i name="pawpsdc">   4852.37155877 </i>
    <i name="pawaedc">  -3670.28705072 </i>
    <i name="eentropy">     -0.31213791 </i>
    <i name="bandstr">   -275.58989646 </i>
    <i name="atom">   1980.91170990 </i>
    <i name="e_fr_energy">   -120.02874657 </i>
    <i name="e_wo_entrp">   -119.71660867 </i>
    <i name="e_0_energy">   -119.87267762 </i>
   </energy>
  </scstep>
  <structure>
   <crystal>
    <varray name="basis" >
     <v>       8.56790000       0.00000000       0.00000000 </v>
     <v>       0.00000000       8.56790000       0.00000000 </v>
     <v>       0.00000000       0.00000000      18.11370000 </v>
    </varray>
    <i name="volume">   1329.70698049 </i>
    <varray name="rec_basis" >
     <v>       0.11671471       0.00000000       0.00000000 </v>
     <v>       0.00000000       0.11671471       0.00000000 </v>
     <v>       0.00000000       0.00000000       0.05520683 </v>
    </varray>
   </crystal>
   <varray name="positions" >
    <v>       0.00056449       0.99900210       0.50115232 </v>
    <v>       0.99922189       0.00088498       0.72400007 </v>
    <v>       0.16690889       0.16604369       0.38933039 </v>
    <v>       0.16543269       0.16681696       0.61285458 </v>
    <v>       0.33342172       0.99956367       0.50110431 </v>
    <v>       0.33172976       0.99903736       0.72351642 </v>
    <v>       0.49984242       0.16586785       0.38949731 </v>
    <v>       0.50059953       0.16622936       0.61255999 </v>
    <v>       0.66648104       0.00045536       0.50139429 </v>
    <v>       0.66673351       0.99892187       0.72442830 </v>
    <v>       0.83311971       0.16843293       0.38922193 </v>
    <v>       0.83378473       0.16767631       0.61261313 </v>
    <v>       0.00005592       0.33580347       0.50172780 </v>
    <v>       0.99981755       0.33307270       0.72392497 </v>
    <v>       0.16723511       0.49903912       0.38991153 </v>
    <v>       0.16706315       0.50014807       0.61272555 </v>
    <v>       0.33235059       0.33345551       0.50119342 </v>
    <v>       0.33346557       0.33371361       0.72343170 </v>
    <v>       0.50099313       0.49961210       0.38916521 </v>
    <v>       0.50008302       0.50098839       0.61276617 </v>
    <v>       0.66675323       0.33427505       0.50111438 </v>
    <v>       0.66721750       0.33405442       0.72389251 </v>
    <v>       0.83422420       0.50045979       0.38957222 </v>
    <v>       0.83289738       0.50100012       0.61272431 </v>
    <v>       0.00020904       0.66710655       0.50078485 </v>
    <v>       0.99998046       0.66616782       0.72370296 </v>
    <v>       0.16703929       0.83322723       0.38905052 </v>
    <v>       0.16660405       0.83249891       0.61240925 </v>
    <v>       0.33406873       0.66753136       0.50067663 </v>
    <v>       0.33270006       0.66654824       0.72357160 </v>
    <v>       0.50000319       0.83353690       0.38943846 </v>
    <v>       0.50055176       0.83252460       0.61243017 </v>
    <v>       0.66624954       0.66569042       0.50151294 </v>
    <v>       0.66662476       0.66640237       0.72368886 </v>
    <v>       0.83346427       0.83186037       0.38925949 </v>
    <v>       0.83261964       0.83236507       0.61215125 </v>
    <v>       0.33667847       0.31863540       0.27599023 </v>
   </varray>
  </structure>
  <varray name="forces" >
   <v>       0.02644070       0.07979057      -0.45602847 </v>
   <v>       0.10944499       0.06892766      -0.36642423 </v>
   <v>      -0.08887902      -0.07155806       0.09009333 </v>
   <v>      -0.06918041      -0.15216474       0.42756111 </v>
   <v>      -0.00221115       0.00349830      -0.72487442 </v>
   <v>       0.01426935       0.03700630      -0.46531778 </v>
   <v>       0.10913080      -0.07879264       0.11393669 </v>
   <v>       0.08025362      -0.10920195       0.45178490 </v>
   <v>      -0.01088041       0.00979729      -0.49241261 </v>
   <v>      -0.10859737       0.11183559      -0.35920166 </v>
   <v>       0.01341531      -0.06517700       0.66434859 </v>
   <v>      -0.03238016      -0.12165434       0.58820748 </v>
   <v>       0.01081441      -0.06321382      -0.77721513 </v>
   <v>       0.02380208       0.01989501      -0.41872203 </v>
   <v>       0.02457880      -0.01076186       0.07802764 </v>
   <v>      -0.16990924       0.12795493       0.42583645 </v>
   <v>       0.04273934       0.01110883      -0.67831556 </v>
   <v>      -0.00013482      -0.02799527      -0.61867656 </v>
   <v>      -0.00733911      -0.01381646       0.06718496 </v>
   <v>       0.14348944       0.09435550       0.42745957 </v>
   <v>      -0.00490490      -0.00940052      -0.73203545 </v>
   <v>      -0.03938577       0.00717271      -0.44167303 </v>
   <v>      -0.02013268       0.00110640       0.64673701 </v>
   <v>      -0.01037631       0.04472502       0.58338907 </v>
   <v>       0.04893015      -0.05198277      -0.42327349 </v>
   <v>       0.10540788      -0.10564883      -0.36601134 </v>
   <v>      -0.02506341       0.03241781       0.64810464 </v>
   <v>      -0.10229086       0.05996363       0.58845136 </v>
   <v>      -0.03453128      -0.05081444      -0.71915922 </v>
   <v>       0.00846203      -0.00341430      -0.42534176 </v>
   <v>       0.05400573       0.02023316       0.64458619 </v>
   <v>       0.04800935       0.03311548       0.60191195 </v>
   <v>      -0.00614623      -0.00207340      -0.47747390 </v>
   <v>      -0.11403310      -0.11124162      -0.36679171 </v>
   <v>      -0.02111592       0.05572479       0.61806385 </v>
   <v>       0.03035368       0.06185849       0.52776794 </v>
   <v>      -0.03138226       0.16287778       1.11850464 </v>
  </varray>
  <varray name="stress" >
   <v>     -17.68222173       0.10523267      -0.17387464 </v>
   <v>       0.10523260     -17.64295389      -0.40415500 </v>
   <v>      -0.17387463      -0.40415497     -21.75964566 </v>
  </varray>
  <energy>
   <i name="e_fr_energy">   -120.02874657 </i>
   <i name="e_wo_entrp">   -119.71660867 </i>
   <i name="e_0_energy">   -119.87267762 </i>
   <i name="kinetic">      1.38623407 </i>
   <i name="lattice kinetic">      0.00000000 </i>
   <i name="nosepot">     -0.00018417 </i>
   <i name="nosekinetic">      0.00000087 </i>
   <i name="total">   -118.64269579 </i>
  </energy>
  <time name="totalsc">    5.93    4.27</time>
 </calculation>
 <calculation>
  <scstep>
   <time name="dav">    0.63    0.44</time>
   <time name="total">    0.67    0.48</time>
   <energy>
    <i name="alphaZ">     -3.45806318 </i>
    <i name="ewald">   4211.41351909 </i>
    <i name="hartreedc">  -6239.20616463 </i>
    <i name="XCdc">   -975.80355364 </i>
    <i name="pawpsdc">   4852.59365208 </i>
    <i name="pawaedc">  -3670.50920370 </i>
    <i name="eentropy">     -0.31156587 </i>
    <i name="bandstr">   -275.65689175 </i>
    <i name="atom">   1980.91170990 </i>
    <i name="e_fr_energy">   -120.02656170 </i>
    <i name="e_wo_entrp">   -119.71499583 </i>
    <i name="e_0_energy">   -119.87077877 </i>
   </energy>
  </scstep>
  <scstep>
   <time name="dav">    1.21    0.81</time>
   <time name="total">    1.26    0.87</time>
   <energy>
    <i name="e_fr_energy">   -120.02589943 </i>
    <i name="e_wo_entrp">   -119.71554885 </i>
    <i name="e_0_energy">   -119.87072414 </i>
   </energy>
  </scstep>
  <scstep>
   <time name="dav">    1.20    0.81</time>
   <time name="total">    1.25    0.87</time>
   <energy>
    <i name="e_fr_energy">   -120.02556307 </i>
    <i name="e_wo_entrp">   -119.71364936 </i>
    <i name="e_0_energy">   -119.86960622 </i>
   </energy>
  </scstep>
  <scstep>
   <time name="dav">    1.22    0.83</time>
   <time name="total">    1.27    0.89</time>
   <energy>
    <i name="e_fr_energy">   -120.02548658 </i>
    <i name="e_wo_entrp">   -119.71366158 </i>
    <i name="e_0_energy">   -119.86957408 </i>
   </energy>
  </scstep>
  <scstep>
   <time name="dav">    0.60    0.42</time>
   <time name="total">    0.65    0.48</time>
   <energy>
    <i name="e_fr_energy">   -120.02547739 </i>
    <i name="e_wo_entrp">   -119.71395371 </i>
    <i name="e_0_energy">   -119.86971555 </i>
   </energy>
  </scstep>
  <scstep>
   <time name="dav">    0.60    0.41</time>
   <time name="total">    0.63    0.45</time>
   <energy>
    <i name="alphaZ">     -3.45806318 </i>
    <i name="ewald">   4211.41351909 </i>
    <i name="hartreedc">  -6239.30127027 </i>
    <i name="XCdc">   -975.80164135 </i>
    <i name="pawpsdc">   4853.91025072 </i>
    <i name="pawaedc">  -3671.82721762 </i>
    <i name="eentropy">     -0.31202704 </i>
    <i name="bandstr">   -275.56074086 </i>
    <i name="atom">   1980.91170990 </i>
    <i name="e_fr_energy">   -120.02548061 </i>
    <i name="e_wo_entrp">   -119.71345357 </i>
    <i name="e_0_energy">   -119.86946709 </i>
   </energy>
  </scstep>
  <structure>
   <crystal>
    <varray name="basis" >
     <v>       8.56790000       0.00000000       0.00000000 </v>
     <v>       0.00000000       8.56790000       0.00000000 </v>
     <v>       0.00000000       0.00000000      18.11370000 </v>
    </varray>
    <i name="volume">   1329.70698049 </i>
    <varray name="rec_basis" >
     <v>       0.11671471       0.00000000       0.00000000 </v>
     <v>       0.00000000       0.11671471       0.00000000 </v>
     <v>       0.00000000       0.00000000       0.05520683 </v>
    </varray>
   </crystal>
   <varray name="positions" >
    <v>       0.00084854       0.99850750       0.50121999 </v>
    <v>       0.99883970       0.00133212       0.72400427 </v>
    <v>       0.16702297       0.16572601       0.38924820 </v>
    <v>       0.16480901       0.16688112       0.61305470 </v>
    <v>       0.33346745       0.99934553       0.50113999 </v>
    <v>       0.33093025       0.99855814       0.72327590 </v>
    <v>       0.49977043       0.16546156       0.38949927 </v>
    <v>       0.50090487       0.16600196       0.61261339 </v>
    <v>       0.66638562       0.00068386       0.50158202 </v>
    <v>       0.66675847       0.99838964       0.72464680 </v>
    <v>       0.83301523       0.16931044       0.38910241 </v>
    <v>       0.83401042       0.16817228       0.61269722 </v>
    <v>       0.00008467       0.33703723       0.50207391 </v>
    <v>       0.99972799       0.33294527       0.72388992 </v>
    <v>       0.16751917       0.49855783       0.39011956 </v>
    <v>       0.16724940       0.50023020       0.61286107 </v>
    <v>       0.33186300       0.33351917       0.50127495 </v>
    <v>       0.33353331       0.33390422       0.72314424 </v>
    <v>       0.50148935       0.49941732       0.38899976 </v>
    <v>       0.50013353       0.50148898       0.61292205 </v>
    <v>       0.66679450       0.33474731       0.50115488 </v>
    <v>       0.66748893       0.33441719       0.72384065 </v>
    <v>       0.83467022       0.50068998       0.38962739 </v>
    <v>       0.83268044       0.50150360       0.61286379 </v>
    <v>       0.00031643       0.66732175       0.50066968 </v>
    <v>       0.99997731       0.66591001       0.72355853 </v>
    <v>       0.16722227       0.83317771       0.38884488 </v>
    <v>       0.16656477       0.83208664       0.61239134 </v>
    <v>       0.33443627       0.66795897       0.50049850 </v>
    <v>       0.33238552       0.66648671       0.72335974 </v>
    <v>       0.50000807       0.83364159       0.38942672 </v>
    <v>       0.50083119       0.83212375       0.61242306 </v>
    <v>       0.66603869       0.66520004       0.50176051 </v>
    <v>       0.66659513       0.66626151       0.72353739 </v>
    <v>       0.83353027       0.83112865       0.38915745 </v>
    <v>       0.83226595       0.83188580       0.61200237 </v>
    <v>       0.33662064       0.31863837       0.27600346 </v>
   </varray>
  </structure>
  <varray name="forces" >
   <v>       0.02215661       0.10723095      -0.45769871 </v>
   <v>       0.10188111       0.05696086      -0.36285616 </v>
   <v>      -0.09638515      -0.07095127       0.09566596 </v>
   <v>      -0.04228917      -0.15836255       0.41599525 </v>
   <v>       0.00028000       0.01331684      -0.72198273 </v>
   <v>       0.02377319       0.04488190      -0.46814156 </v>
   <v>       0.11305214      -0.07229521       0.12276269 </v>
   <v>       0.05579425      -0.09583371       0.44978314 </v>
   <v>       0.00133502       0.00239313      -0.50746603 </v>
   <v>      -0.10785798       0.11326781      -0.35548467 </v>
   <v>       0.02530722      -0.07128136       0.67772502 </v>
   <v>      -0.04745666      -0.13791880       0.57723436 </v>
   <v>       0.00447884      -0.09819776      -0.79866954 </v>
   <v>       0.01784651       0.02331475      -0.40581956 </v>
   <v>       0.02655519      -0.00208247       0.07967139 </v>
   <v>      -0.18253064       0.12106296       0.40774426 </v>
   <v>       0.06943284      -0.00286263      -0.67021238 </v>
   <v>       0.00082792      -0.05931002      -0.61814893 </v>
   <v>      -0.00782636      -0.01410488       0.06896166 </v>
   <v>       0.14356654       0.07402038       0.41267948 </v>
   <v>      -0.00637629      -0.02490303      -0.72992700 </v>
   <v>      -0.04416921       0.00135435      -0.43992294 </v>
   <v>      -0.02594511      -0.00982405       0.65431000 </v>
   <v>      -0.01365148       0.01872587       0.57777809 </v>
   <v>       0.05916924      -0.05863584      -0.41922116 </v>
   <v>       0.10440075      -0.09844943      -0.35836371 </v>
   <v>      -0.02054413       0.04077253       0.65631286 </v>
   <v>      -0.10534042       0.08194536       0.58449212 </v>
   <v>      -0.04880841      -0.05164436      -0.70999431 </v>
   <v>       0.01846175       0.01842090      -0.42058308 </v>
   <v>       0.05987563       0.02246829       0.65113122 </v>
   <v>       0.02452263       0.03941714       0.60220948 </v>
   <v>       0.00284483       0.01710179      -0.49975723 </v>
   <v>      -0.12060361      -0.10993132      -0.36319030 </v>
   <v>      -0.02912820       0.07648135       0.62374966 </v>
   <v>       0.04542483       0.08666871       0.53536139 </v>
   <v>      -0.02549834       0.15917567       1.11699286 </v>
  </varray>
  <varray name="stress" >
   <v>     -17.47933282       0.17773598      -0.27946403 </v>
   <v>       0.17773592     -17.40816349      -0.49030175 </v>
   <v>      -0.27946401      -0.49030172     -21.91063919 </v>
  </varray>
  <energy>
   <i name="e_fr_energy">   -120.02548061 </i>
   <i name="e_wo_entrp">   -119.71345357 </i>
   <i name="e_0_energy">   -119.86946709 </i>
   <i name="kinetic">      1.38331244 </i>
   <i name="lattice kinetic">      0.00000000 </i>
   <i name="nosepot">     -0.00056650 </i>
   <i name="nosekinetic">      0.00000391 </i>
   <i name="total">   -118.64273075 </i>
  </energy>
  <time name="totalsc">    6.01    4.33</time>
 </calculation>
 <calculation>
  <scstep>
   <time name="dav">    0.61    0.43</time>
   <time name="total">    0.65    0.47</time>
   <energy>
    <i name="alphaZ">     -3.45806318 </i>
    <i name="ewald">   4213.31113447 </i>
    <i name="hartreedc">  -6241.10800853 </i>
    <i name="XCdc">   -975.78805470 </i>
    <i name="pawpsdc">   4854.14956852 </i>
    <i name="pawaedc">  -3672.06661349 </i>
    <i name="eentropy">     -0.30967723 </i>
    <i name="bandstr">   -275.66647844 </i>
    <i name="atom">   1980.91170990 </i>
    <i name="e_fr_energy">   -120.02448268 </i>
    <i name="e_wo_entrp">   -119.71480545 </i>
    <i name="e_0_energy">   -119.86964407 </i>
   </energy>
  </scstep>
  <scstep>
   <time name="dav">    1.20    0.82</time>
   <time name="total">    1.25    0.87</time>
   <energy>
    <i name="e_fr_energy">   -120.02380412 </i>
    <i name="e_wo_entrp">   -119.71446537 </i>
    <i name="e_0_energy">   -119.86913475 </i>
   </energy>
  </scstep>
  <scstep>
   <time name="dav">    1.22    0.83</time>
   <time name="total">    1.27    0.89</time>
   <energy>
    <i name="e_fr_energy">   -120.02348708 </i>
    <i name="e_wo_entrp">   -119.71258593 </i>
    <i name="e_0_energy">   -119.86803650 </i>
   </energy>
  </scstep>
  <scstep>
   <time name="dav">    1.19    0.80</time>
   <time name="total">    1.24    0.86</time>
   <energy>
    <i name="e_fr_energy">   -120.02340925 </i>
    <i name="e_wo_entrp">   -119.71266067 </i>
    <i name="e_0_energy">   -119.86803496 </i>
   </energy>
  </scstep>
  <scstep>
   <time name="dav">    0.61    0.42</time>
   <time name="total">    0.65    0.48</time>
   <energy>
    <i name="e_fr_energy">   -120.02340054 </i>
    <i name="e_wo_entrp">   -119.71292171 </i>
    <i name="e_0_energy">   -119.86816112 </i>
   </energy>
  </scstep>
  <scstep>
   <time name="dav">    1.21    0.82</time>
   <time name="total">    1.24    0.86</time>
   <energy>
    <i name="alphaZ">     -3.45806318 </i>
    <i name="ewald">   4213.31113447 </i>
    <i name="hartreedc">  -6241.24999919 </i>
    <i name="XCdc">   -975.78452555 </i>
    <i name="pawpsdc">   4856.17186306 </i>
    <i name="pawaedc">  -3674.09094285 </i>
    <i name="eentropy">     -0.31097764 </i>
    <i name="bandstr">   -275.52360301 </i>
    <i name="atom">   1980.91170990 </i>
    <i name="e_fr_energy">   -120.02340398 </i>
    <i name="e_wo_entrp">   -119.71242634 </i>
    <i name="e_0_energy">   -119.86791516 </i>
   </energy>
  </scstep>
  <structure>
   <crystal>
    <varray name="basis" >
     <v>       8.56790000       0.00000000       0.00000000 </v>
     <v>       0.00000000       8.56790000       0.00000000 </v>
     <v>       0.00000000       0.00000000      18.11370000 </v>
    </varray>
    <i name="volume">   1329.70698049 </i>
    <varray name="rec_basis" >
     <v>       0.11671471       0.00000000       0.00000000 </v>
     <v>       0.00000000       0.11671471       0.00000000 </v>
     <v>       0.00000000       0.00000000       0.05520683 </v>
    </varray>
   </crystal>
   <varray name="positions" >
    <v>       0.00113359       0.99801729       0.50127863 </v>
    <v>       0.99846169       0.00178173       0.72400130 </v>
    <v>       0.16713306       0.16540533       0.38916789 </v>
    <v>       0.16418346       0.16693870       0.61326306 </v>
    <v>       0.33351320       0.99912793       0.50116143 </v>
    <v>       0.33013160       0.99808072       0.72302608 </v>
    <v>       0.49970315       0.16505220       0.38950365 </v>
    <v>       0.50121260       0.16577055       0.61267569 </v>
    <v>       0.66629024       0.00091252       0.50175975 </v>
    <v>       0.66677892       0.99786207       0.72485832 </v>
    <v>       0.83291178       0.17018515       0.38899626 </v>
    <v>       0.83423417       0.16866261       0.61279272 </v>
    <v>       0.00011362       0.33826715       0.50240431 </v>
    <v>       0.99963917       0.33281882       0.72384685 </v>
    <v>       0.16780441       0.49807637       0.39032920 </v>
    <v>       0.16742808       0.50031741       0.61300467 </v>
    <v>       0.33137822       0.33358274       0.50134326 </v>
    <v>       0.33360111       0.33409240       0.72284451 </v>
    <v>       0.50198533       0.49922194       0.38883565 </v>
    <v>       0.50019004       0.50199278       0.61308611 </v>
    <v>       0.66683553       0.33521865       0.50118097 </v>
    <v>       0.66775857       0.33478011       0.72378010 </v>
    <v>       0.83511525       0.50091983       0.38969550 </v>
    <v>       0.83246290       0.50200798       0.61301471 </v>
    <v>       0.00042632       0.66753457       0.50054622 </v>
    <v>       0.99997852       0.66564806       0.72340699 </v>
    <v>       0.16740444       0.83312991       0.38865216 </v>
    <v>       0.16652109       0.83167774       0.61238497 </v>
    <v>       0.33480184       0.66838453       0.50030632 </v>
    <v>       0.33207169       0.66642597       0.72313954 </v>
    <v>       0.50001544       0.83374726       0.38942784 </v>
    <v>       0.50111170       0.83172449       0.61242785 </v>
    <v>       0.66582791       0.66471030       0.50199827 </v>
    <v>       0.66656047       0.66611606       0.72337872 </v>
    <v>       0.83359508       0.83040001       0.38906770 </v>
    <v>       0.83191410       0.83141008       0.61186404 </v>
    <v>       0.33656173       0.31864801       0.27603876 </v>
   </varray>
  </structure>
  <varray name="forces" >
   <v>       0.01700417       0.13394421      -0.46011675 </v>
   <v>       0.09816754       0.04195768      -0.36373442 </v>
   <v>      -0.10218765      -0.07730487       0.09885158 </v>
   <v>      -0.01400742      -0.16773774       0.39937674 </v>
   <v>       0.00194989       0.02398244      -0.71958477 </v>
   <v>       0.02709072       0.05242011      -0.47290094 </v>
   <v>       0.11598219      -0.06063244       0.12910875 </v>
   <v>       0.03272182      -0.08253887       0.44832737 </v>
   <v>       0.01318379      -0.00678109      -0.52447479 </v>
   <v>      -0.10528780       0.12013779      -0.35575217 </v>
   <v>       0.03354779      -0.07454811       0.69363316 </v>
   <v>      -0.05907230      -0.15202403       0.57073636 </v>
   <v>      -0.00353959      -0.13117770      -0.81968847 </v>
   <v>       0.01153910       0.02632339      -0.39349050 </v>
   <v>       0.02836419       0.00825389       0.08346265 </v>
   <v>      -0.19561655       0.11410347       0.38898030 </v>
   <v>       0.09610927      -0.01497310      -0.66240201 </v>
   <v>       0.00324179      -0.08833324      -0.61685897 </v>
   <v>      -0.01207980      -0.01322991       0.07336255 </v>
   <v>       0.14327327       0.05783744       0.40175994 </v>
   <v>      -0.00562262      -0.04135708      -0.73016877 </v>
   <v>      -0.04716069      -0.00103108      -0.44001164 </v>
   <v>      -0.03416362      -0.02184136       0.66156447 </v>
   <v>      -0.01689440      -0.00565754       0.57341197 </v>
   <v>       0.07101261      -0.06248494      -0.41902446 </v>
   <v>       0.10316728      -0.09107698      -0.34868996 </v>
   <v>      -0.01703192       0.05034619       0.66662670 </v>
   <v>      -0.11007647       0.10481615       0.57909710 </v>
   <v>      -0.06402762      -0.05936076      -0.69986082 </v>
   <v>       0.02764484       0.04151691      -0.41299421 </v>
   <v>       0.06577917       0.02485319       0.65758928 </v>
   <v>       0.00135860       0.04867236       0.60231706 </v>
   <v>       0.01152255       0.03328444      -0.52162870 </v>
   <v>      -0.12639110      -0.10610506      -0.35996542 </v>
   <v>      -0.03903786       0.10027689       0.63181587 </v>
   <v>       0.06162944       0.11494286       0.54255064 </v>
   <v>      -0.02116729       0.15622274       1.11416337 </v>
  </varray>
  <varray name="stress" >
   <v>     -17.23948489       0.26854809      -0.39520603 </v>
   <v>       0.26854809     -17.08580261      -0.56000147 </v>
   <v>      -0.39520600      -0.56000153     -22.03918857 </v>
  </varray>
  <energy>
   <i name="e_fr_energy">   -120.02340398 </i>
   <i name="e_wo_entrp">   -119.71242634 </i>
   <i name="e_0_energy">   -119.86791516 </i>
   <i name="kinetic">      1.38185812 </i>
   <i name="lattice kinetic">      0.00000000 </i>
   <i name="nosepot">     -0.00124976 </i>
   <i name="nosekinetic">      0.00001042 </i>
   <i name="total">   -118.64278521 </i>
  </energy>
  <time name="totalsc">    6.61    4.73</time>
 </calculation>
 <calculation>
  <scstep>
   <time name="dav">    0.63    0.44</time>
   <time name="total">    0.66    0.48</time>
   <energy>
    <i name="alphaZ">     -3.45806318 </i>
    <i name="ewald">   4215.53649277 </i>
    <i name="hartreedc">  -6243.35171205 </i>
    <i name="XCdc">   -975.76747899 </i>
    <i name="pawpsdc">   4856.47631784 </i>
    <i name="pawaedc">  -3674.39549165 </i>
    <i name="eentropy">     -0.30692429 </i>
    <i name="bandstr">   -275.66838366 </i>
    <i name="atom">   1980.91170990 </i>
    <i name="e_fr_energy">   -120.02353330 </i>
    <i name="e_wo_entrp">   -119.71660902 </i>
    <i name="e_0_energy">   -119.87007116 </i>
   </energy>
  </scstep>
  <scstep>
   <time name="dav">    1.20    0.81</time>
   <time name="total">    1.25    0.87</time>
   <energy>
    <i name="e_fr_energy">   -120.02282968 </i>
    <i name="e_wo_entrp">   -119.71541329 </i>
    <i name="e_0_energy">   -119.86912148 </i>
   </energy>
  </scstep>
  <scstep>
   <time name="dav">    1.23    0.84</time>
   <time name="total">    1.28    0.90</time>
   <energy>
    <i name="e_fr_energy">   -120.02253825 </i>
    <i name="e_wo_entrp">   -119.71356299 </i>
    <i name="e_0_energy">   -119.86805062 </i>
   </energy>
  </scstep>
  <scstep>
   <time name="dav">    1.21    0.82</time>
   <time name="total">    1.26    0.88</time>
   <energy>
    <i name="e_fr_energy">   -120.02245943 </i>
    <i name="e_wo_entrp">   -119.71369961 </i>
    <i name="e_0_energy">   -119.86807952 </i>
   </energy>
  </scstep>
  <scstep>
   <time name="dav">    1.19    0.80</time>
   <time name="total">    1.24    0.86</time>
   <energy>
    <i name="e_fr_energy">   -120.02245131 </i>
    <i name="e_wo_entrp">   -119.71392845 </i>
    <i name="e_0_energy">   -119.86818988 </i>
   </energy>
  </scstep>
  <scstep>
   <time name="dav">    0.61    0.42</time>
   <time name="total">    0.63    0.46</time>
   <energy>
    <i name="alphaZ">     -3.45806318 </i>
    <i name="ewald">   4215.53649277 </i>
    <i name="hartreedc">  -6243.54187060 </i>
    <i name="XCdc">   -975.76238414 </i>
    <i name="pawpsdc">   4859.32706196 </i>
    <i name="pawaedc">  -3677.24889865 </i>
    <i name="eentropy">     -0.30899578 </i>
    <i name="bandstr">   -275.47750633 </i>
    <i name="atom">   1980.91170990 </i>
    <i name="e_fr_energy">   -120.02245405 </i>
    <i name="e_wo_entrp">   -119.71345827 </i>
    <i name="e_0_energy">   -119.86795616 </i>
   </energy>
  </scstep>
  <structure>
   <crystal>
    <varray name="basis" >
     <v>       8.56790000       0.00000000       0.00000000 </v>
     <v>       0.00000000       8.56790000       0.00000000 </v>
     <v>       0.00000000       0.00000000      18.11370000 </v>
    </varray>
    <i name="volume">   1329.70698049 </i>
    <varray name="rec_basis" >
     <v>       0.11671471       0.00000000       0.00000000 </v>
     <v>       0.00000000       0.11671471       0.00000000 </v>
     <v>       0.00000000       0.00000000       0.05520683 </v>
    </varray>
   </crystal>
   <varray name="positions" >
    <v>       0.00141943       0.99753253       0.50132820 </v>
    <v>       0.99808768       0.00223324       0.72399116 </v>
    <v>       0.16723892       0.16508133       0.38908951 </v>
    <v>       0.16355714       0.16698931       0.61347938 </v>
    <v>       0.33355906       0.99891127       0.50116866 </v>
    <v>       0.32933384       0.99760536       0.72276686 </v>
    <v>       0.49964070       0.16464019       0.38951058 </v>
    <v>       0.50152179       0.16553562       0.61274686 </v>
    <v>       0.66619539       0.00114097       0.50192719 </v>
    <v>       0.66679500       0.99733935       0.72506289 </v>
    <v>       0.83280971       0.17105703       0.38890376 </v>
    <v>       0.83445554       0.16914675       0.61289951 </v>
    <v>       0.00014245       0.33949197       0.50271863 </v>
    <v>       0.99955081       0.33269343       0.72379600 </v>
    <v>       0.16809092       0.49759512       0.39054056 </v>
    <v>       0.16759865       0.50040942       0.61315599 </v>
    <v>       0.33089732       0.33364572       0.50139852 </v>
    <v>       0.33366907       0.33427696       0.72253252 </v>
    <v>       0.50248097       0.49902595       0.38867294 </v>
    <v>       0.50025256       0.50249915       0.61325816 </v>
    <v>       0.66687633       0.33568841       0.50119265 </v>
    <v>       0.66802634       0.33514310       0.72371084 </v>
    <v>       0.83555900       0.50114884       0.38977669 </v>
    <v>       0.83224460       0.50251228       0.61317700 </v>
    <v>       0.00053921       0.66774485       0.50041445 </v>
    <v>       0.99998405       0.66538224       0.72324853 </v>
    <v>       0.16758596       0.83308419       0.38847255 </v>
    <v>       0.16647281       0.83127310       0.61239004 </v>
    <v>       0.33516486       0.66880774       0.50010026 </v>
    <v>       0.33175893       0.66636694       0.72291112 </v>
    <v>       0.50002558       0.83385400       0.38944194 </v>
    <v>       0.50139237       0.83132715       0.61244453 </v>
[...]
  <v>       0.30812741       0.66562762       0.20254313 </v>
  <v>      -0.19997336      -0.09445944      -1.17927888 </v>
  <v>      -0.31723793       0.06709644       0.23161402 </v>
  <v>      -0.45770618      -1.00715030       0.13202497 </v>
  <v>      -0.08798174      -0.46733736       0.21140877 </v>
  <v>       0.07583976       0.43420709      -0.24919819 </v>
  <v>       0.00225800      -0.02602511      -0.94172572 </v>
  <v>      -0.49429227       0.69430495       0.34126078 </v>
  <v>       0.30047226      -0.01841780      -0.37908876 </v>
  <v>      -0.35306323      -0.08398727       0.17384900 </v>
  <v>       0.15296762       0.10797566      -0.22760539 </v>
  <v>       0.04413581      -0.04980605       0.30892931 </v>
  <v>       0.18815603      -0.50062775       0.04148992 </v>
  <v>       0.14866684      -0.45792947       0.17891471 </v>
  <v>      -0.22350610       0.35866731       0.36154302 </v>
  <v>       0.04695362       0.49057555       0.14272121 </v>
  <v>      -0.14307981      -0.26318709      -0.04424600 </v>
  <v>       0.22684380      -0.23466628      -0.29994893 </v>
  <v>       0.48689729      -0.38044156      -0.44957474 </v>
  <v>      -0.16979364       0.13296688       0.37941258 </v>
  <v>      -0.42302736       0.06139602       0.85250489 </v>
  <v>      -0.17904382      -0.12366192      -0.61814792 </v>
  <v>      -0.15180321      -0.05045603      -1.11376289 </v>
  <v>       0.60134299      -0.12132958       0.90982466 </v>
  <v>       0.40104501       0.36383756      -0.25336292 </v>
  <v>      -0.07193530       0.25509194      -0.01483046 </v>
  <v>       0.37977457       0.49917652      -0.29150619 </v>
  <v>      -0.24876115       0.23938049       0.73205261 </v>
  <v>       0.19590996      -0.11989619      -0.02121863 </v>
 </varray>
 <varray name="stress" >
  <v>      28.87327759       2.92951039      -2.43618875 </v>
  <v>       2.92951039      28.32534251      -2.26894753 </v>
  <v>      -2.43618875      -2.26894753       0.65640254 </v>
 </varray>
 <energy>
  <i name="e_fr_energy">   -122.48253510 </i>
  <i name="e_wo_entrp">   -122.48253510 </i>
  <i name="e_0_energy">   -122.48253510 </i>
  <i name="kinetic">      1.54869223 </i>
  <i name="lattice kinetic">      0.00000000 </i>
  <i name="nosepot">      1.91222482 </i>
  <i name="nosekinetic">      0.07878884 </i>
  <i name="total">   -118.94282922 </i>
 </energy>
 <time name="totalsc">    0.01    0.01</time>
 <structure>
  <crystal>
   <varray name="basis" >
    <v>       8.56790000       0.00000000       0.00000000 </v>
    <v>       0.00000000       8.56790000       0.00000000 </v>
    <v>       0.00000000       0.00000000      18.11370000 </v>
   </varray>
   <i name="volume">   1329.70698049 </i>
   <varray name="rec_basis" >
    <v>       0.11671471       0.00000000       0.00000000 </v>
    <v>       0.00000000       0.11671471       0.00000000 </v>
    <v>       0.00000000       0.00000000       0.05520683 </v>
   </varray>
  </crystal>
  <varray name="positions" >
   <v>       0.00564025       0.01336079       0.50844629 </v>
   <v>       0.00510253       0.00926211       0.69301331 </v>
   <v>       0.15483322       0.16489291       0.39018327 </v>
   <v>       0.17297704       0.18865612       0.61090286 </v>
   <v>       0.32476320       0.02175744       0.50078819 </v>
   <v>       0.32854331       0.99679774       0.70402796 </v>
   <v>       0.50844861       0.15387260       0.39604591 </v>
   <v>       0.48283388       0.18042105       0.60975290 </v>
   <v>       0.66323081       0.01667915       0.51539283 </v>
   <v>       0.66873470       0.00617747       0.69481169 </v>
   <v>       0.83940832       0.14917750       0.40301845 </v>
   <v>       0.84529708       0.19308040       0.60839945 </v>
   <v>       0.99529258       0.33669594       0.49259802 </v>
   <v>       0.00789094       0.32541636       0.72172776 </v>
   <v>       0.15640665       0.50609775       0.40620524 </v>
   <v>       0.18680169       0.47840253       0.60870809 </v>
   <v>       0.32348915       0.32640877       0.49138735 </v>
   <v>       0.34432215       0.33658267       0.72285988 </v>
   <v>       0.50763804       0.50228006       0.40112196 </v>
   <v>       0.48294746       0.48515351       0.60720849 </v>
   <v>       0.66240314       0.33529141       0.49362629 </v>
   <v>       0.66071247       0.34455502       0.71081947 </v>
   <v>       0.83507677       0.50017304       0.39825545 </v>
   <v>       0.84615137       0.47736519       0.61255944 </v>
   <v>       0.00742976       0.64936147       0.51497435 </v>
   <v>       0.01068881       0.66901534       0.69302175 </v>
   <v>       0.14988273       0.83946696       0.42300083 </v>
   <v>       0.18060909       0.83095643       0.59822053 </v>
   <v>       0.33504355       0.64608370       0.49349627 </v>
   <v>       0.34103887       0.67007034       0.72044214 </v>
   <v>       0.51039341       0.83624331       0.43295494 </v>
   <v>       0.48002350       0.83614572       0.59419815 </v>
   <v>       0.65959041       0.63800773       0.51821595 </v>
   <v>       0.65995689       0.66305503       0.68641548 </v>
   <v>       0.82372896       0.81487334       0.43262007 </v>
   <v>       0.84075530       0.83193619       0.59652188 </v>
   <v>       0.32870337       0.34487690       0.31254710 </v>
  </varray>
 </structure>
 <varray name="forces" >
  <v>      -0.32179042       0.65775766       0.60397881 </v>
  <v>       0.02065848      -0.46930888      -0.14948237 </v>
  <v>      -0.09600313      -0.58542453       0.29969511 </v>
  <v>      -0.02201317      -0.49423162       0.13772597 </v>
  <v>       0.10604161       0.18553655      -0.24182109 </v>
  <v>       0.14380437       0.09164996      -0.13811628 </v>
  <v>      -0.19469723       0.23528451       0.02231520 </v>
  <v>       0.31367269       0.03915729       0.38120489 </v>
  <v>       0.35116339       0.64832016       0.19892432 </v>
  <v>      -0.20703922      -0.09615434      -1.17726214 </v>
  <v>      -0.31697726       0.08078870       0.21782624 </v>
  <v>      -0.46535314      -0.98997727       0.11533526 </v>
  <v>      -0.07490823      -0.50387476       0.24050304 </v>
  <v>       0.07265624       0.43979392      -0.26170727 </v>
  <v>       0.00617486      -0.06152500      -0.99328952 </v>
  <v>      -0.49930621       0.69181005       0.36379951 </v>
  <v>       0.31705531      -0.02265059      -0.40161743 </v>
  <v>      -0.37717434      -0.06715130       0.18954888 </v>
  <v>       0.16057673       0.06677601      -0.24747365 </v>
  <v>       0.02944021      -0.02514554       0.28227479 </v>
  <v>       0.15158009      -0.51929684       0.02316526 </v>
  <v>       0.16785348      -0.47228802       0.17569365 </v>
  <v>      -0.22282930       0.37882338       0.34257653 </v>
  <v>       0.04604467       0.49664349       0.11592281 </v>
  <v>      -0.18557685      -0.24094730      -0.01250212 </v>
  <v>       0.25057615      -0.23821623      -0.28426029 </v>
  <v>       0.49807155      -0.37404729      -0.47408173 </v>
  <v>      -0.15721302       0.12132679       0.38611499 </v>
  <v>      -0.40835584       0.07853001       0.88632425 </v>
  <v>      -0.18886436      -0.13542134      -0.61410346 </v>
  <v>      -0.17909056      -0.03429134      -1.13439312 </v>
  <v>       0.58387664      -0.12689551       0.91401709 </v>
  <v>       0.45113536       0.38376269      -0.20553030 </v>
  <v>      -0.04398389       0.25356300       0.01125545 </v>
  <v>       0.39016710       0.49900664      -0.30564992 </v>
  <v>      -0.30100083       0.22650578       0.73015733 </v>
  <v>       0.20162805      -0.11818889       0.00293133 </v>
 </varray>
 <varray name="stress" >
  <v>      29.25825756       2.94420609      -2.39846325 </v>
  <v>       2.94420609      28.74906163      -2.30799934 </v>
  <v>      -2.39846325      -2.30799934       1.14676866 </v>
 </varray>
 <energy>
  <i name="e_fr_energy">   -122.46761696 </i>
  <i name="e_wo_entrp">   -122.46761696 </i>
  <i name="e_0_energy">   -122.46761696 </i>
  <i name="kinetic">      1.45322848 </i>
  <i name="lattice kinetic">      0.00000000 </i>
  <i name="nosepot">      1.98719667 </i>
  <i name="nosekinetic">      0.08443983 </i>
  <i name="total">   -118.94275198 </i>
 </energy>
 <time name="totalsc">    0.01    0.01</time>
 <structure>
  <crystal>
   <varray name="basis" >
    <v>       8.56790000       0.00000000       0.00000000 </v>
    <v>       0.00000000       8.56790000       0.00000000 </v>
    <v>       0.00000000       0.00000000      18.11370000 </v>
   </varray>
   <i name="volume">   1329.70698049 </i>
   <varray name="rec_basis" >
    <v>       0.11671471       0.00000000       0.00000000 </v>
    <v>       0.00000000       0.11671471       0.00000000 </v>
    <v>       0.00000000       0.00000000       0.05520683 </v>
   </varray>
  </crystal>
  <varray name="positions" >
   <v>       0.00603366       0.01376232       0.50839720 </v>
   <v>       0.00458377       0.00919587       0.69275845 </v>
   <v>       0.15445914       0.16504555       0.39024228 </v>
   <v>       0.17299913       0.18860222       0.61108357 </v>
   <v>       0.32498975       0.02152196       0.50071349 </v>
   <v>       0.32845199       0.99674614       0.70362473 </v>
   <v>       0.50895391       0.15384770       0.39619619 </v>
   <v>       0.48288718       0.18059118       0.60990513 </v>
   <v>       0.66261714       0.01725584       0.51556543 </v>
   <v>       0.66890037       0.00612194       0.69460687 </v>
   <v>       0.83917099       0.14908315       0.40333047 </v>
   <v>       0.84528248       0.19305511       0.60847370 </v>
   <v>       0.99499413       0.33718476       0.49252685 </v>
   <v>       0.00798812       0.32538735       0.72187450 </v>
   <v>       0.15658758       0.50632497       0.40640749 </v>
   <v>       0.18707098       0.47845060       0.60855178 </v>
   <v>       0.32323005       0.32616470       0.49157248 </v>
   <v>       0.34467738       0.33605707       0.72282555 </v>
   <v>       0.50731030       0.50249330       0.40113627 </v>
   <v>       0.48323159       0.48466665       0.60742405 </v>
   <v>       0.66278811       0.33557833       0.49376905 </v>
   <v>       0.66055955       0.34487397       0.71113413 </v>
   <v>       0.83494158       0.50015509       0.39852549 </v>
   <v>       0.84622951       0.47725407       0.61272621 </v>
   <v>       0.00785206       0.64892592       0.51477532 </v>
   <v>       0.01051007       0.66913007       0.69274272 </v>
   <v>       0.14982885       0.83941700       0.42308338 </v>
   <v>       0.18048266       0.83116353       0.59802988 </v>
   <v>       0.33493489       0.64591514       0.49342033 </v>
   <v>       0.34113842       0.67031069       0.72006489 </v>
   <v>       0.51077977       0.83602839       0.43311872 </v>
   <v>       0.48018204       0.83603622       0.59408693 </v>
   <v>       0.65900593       0.63737550       0.51797984 </v>
   <v>       0.65969177       0.66331012       0.68603892 </v>
   <v>       0.82360079       0.81513657       0.43305179 </v>
   <v>       0.84127688       0.83188483       0.59619796 </v>
   <v>       0.32856749       0.34459617       0.31252796 </v>
  </varray>
 </structure>
 <varray name="forces" >
  <v>      -0.34161734       0.66626008       0.61426930 </v>
  <v>       0.04784017      -0.47640480      -0.12182296 </v>
  <v>      -0.07931373      -0.58527922       0.29966954 </v>
  <v>      -0.02883565      -0.48062581       0.11532886 </v>
  <v>       0.09800906       0.19734705      -0.22458674 </v>
  <v>       0.14547993       0.08904061      -0.11651772 </v>
  <v>      -0.22198178       0.25727599       0.01006209 </v>
  <v>       0.32194931       0.02286759       0.36828507 </v>
  <v>       0.39087873       0.62771268       0.19269467 </v>
  <v>      -0.21437420      -0.09806955      -1.17164534 </v>
  <v>      -0.31611579       0.09422455       0.20330328 </v>
  <v>      -0.47167703      -0.96753598       0.09956686 </v>
  <v>      -0.06086860      -0.53833081       0.26827437 </v>
  <v>       0.06895301       0.44403165      -0.27406276 </v>
  <v>       0.00950448      -0.09613090      -1.04125403 </v>
  <v>      -0.50288315       0.68651580       0.38558973 </v>
  <v>       0.33220739      -0.02606403      -0.42221639 </v>
  <v>      -0.40114725      -0.04912175       0.20358773 </v>
  <v>       0.16725265       0.02722367      -0.26607986 </v>
  <v>       0.01513973      -0.00052757       0.25591764 </v>
  <v>       0.11561132      -0.53616649       0.00580752 </v>
  <v>       0.18685739      -0.48488183       0.17161894 </v>
  <v>      -0.22166726       0.39783575       0.32327063 </v>
  <v>       0.04399143       0.49881988       0.08961328 </v>
  <v>      -0.22692457      -0.21744756       0.01804237 </v>
  <v>       0.27307560      -0.24038459      -0.26698339 </v>
  <v>       0.50674686      -0.36662771      -0.49471260 </v>
  <v>      -0.14364234       0.10803054       0.39191639 </v>
  <v>      -0.39200490       0.09554431       0.91558918 </v>
  <v>      -0.19827181      -0.14646240      -0.60977994 </v>
  <v>      -0.20431541      -0.01874266      -1.14931556 </v>
  <v>       0.56449313      -0.13161749       0.91438083 </v>
  <v>       0.49813397       0.40219638      -0.15893505 </v>
  <v>      -0.01618997       0.25112555       0.03655605 </v>
  <v>       0.39956972       0.49833365      -0.31783274 </v>
  <v>      -0.35039801       0.21316853       0.72613831 </v>
  <v>       0.20653491      -0.11713312       0.02626242 </v>
 </varray>
 <varray name="stress" >
  <v>      29.62557354       2.95855406      -2.36125876 </v>
  <v>       2.95855406      29.15534003      -2.33447636 </v>
  <v>      -2.36125876      -2.33447636       1.61738011 </v>
 </varray>
 <energy>
  <i name="e_fr_energy">   -122.45391102 </i>
  <i name="e_wo_entrp">   -122.45391102 </i>
  <i name="e_0_energy">   -122.45391102 </i>
  <i name="kinetic">      1.36249520 </i>
  <i name="lattice kinetic">      0.00000000 </i>
  <i name="nosepot">      2.06360761 </i>
  <i name="nosekinetic">      0.08506508 </i>
  <i name="total">   -118.94274313 </i>
 </energy>
 <time name="totalsc">    0.01    0.01</time>
 <structure>
  <crystal>
   <varray name="basis" >
    <v>       8.56790000       0.00000000       0.00000000 </v>
    <v>       0.00000000       8.56790000       0.00000000 </v>
    <v>       0.00000000       0.00000000      18.11370000 </v>
   </varray>
   <i name="volume">   1329.70698049 </i>
   <varray name="rec_basis" >
    <v>       0.11671471       0.00000000       0.00000000 </v>
    <v>       0.00000000       0.11671471       0.00000000 </v>
    <v>       0.00000000       0.00000000       0.05520683 </v>
   </varray>
  </crystal>
  <varray name="positions" >
   <v>       0.00640236       0.01418043       0.50836141 </v>
   <v>       0.00408100       0.00911181       0.69250810 </v>
   <v>       0.15409192       0.16516996       0.39030554 </v>
   <v>       0.17301944       0.18852999       0.61126163 </v>
   <v>       0.32521421       0.02130098       0.50063643 </v>
   <v>       0.32836913       0.99669961       0.70323014 </v>
   <v>       0.50943641       0.15383407       0.39634260 </v>
   <v>       0.48295230       0.18075765       0.61006042 </v>
   <v>       0.66203616       0.01784277       0.51573712 </v>
   <v>       0.66905274       0.00606388       0.69438477 </v>
   <v>       0.83892707       0.14899524       0.40363802 </v>
   <v>       0.84524885       0.19299065       0.60854789 </v>
   <v>       0.99470124       0.33763821       0.49246282 </v>
   <v>       0.00808552       0.32537741       0.72201194 </v>
   <v>       0.15676402       0.50654209       0.40658398 </v>
   <v>       0.18731228       0.47852563       0.60840720 </v>
   <v>       0.32299164       0.32592616       0.49174437 </v>
   <v>       0.34500649       0.33554366       0.72279612 </v>
   <v>       0.50699831       0.50270190       0.40114501 </v>
   <v>       0.48350865       0.48419293       0.60763876 </v>
   <v>       0.66316742       0.33583541       0.49390806 </v>
   <v>       0.66041846       0.34516434       0.71144362 </v>
   <v>       0.83480091       0.50015399       0.39879453 </v>
   <v>       0.84630734       0.47716650       0.61289022 </v>
   <v>       0.00825359       0.64849319       0.51458201 </v>
   <v>       0.01034741       0.66923179       0.69246605 </v>
   <v>       0.14979729       0.83935330       0.42315406 </v>
   <v>       0.18035373       0.83136948       0.59785201 </v>
   <v>       0.33481303       0.64575508       0.49336428 </v>
   <v>       0.34122711       0.67053850       0.71968596 </v>
   <v>       0.51114728       0.83581850       0.43325569 </v>
   <v>       0.48035953       0.83592426       0.59399652 </v>
   <v>       0.65845778       0.63677693       0.51774702 </v>
   <v>       0.65943315       0.66356865       0.68567326 </v>
   <v>       0.82349254       0.81541320       0.43346564 </v>
   <v>       0.84176992       0.83184363       0.59589695 </v>
   <v>       0.32844378       0.34431820       0.31250984 </v>
  </varray>
 </structure>
 <varray name="forces" >
  <v>      -0.35841003       0.67066248       0.62180737 </v>
  <v>       0.07462181      -0.48235613      -0.09388460 </v>
  <v>      -0.06238243      -0.58319232       0.29806594 </v>
  <v>      -0.03507805      -0.46455992       0.09334616 </v>
  <v>       0.09033151       0.20728876      -0.20674755 </v>
  <v>       0.14714666       0.08610307      -0.09415836 </v>
  <v>      -0.24791150       0.27783506      -0.00248525 </v>
  <v>       0.32885017       0.00727139       0.35468962 </v>
  <v>       0.42711690       0.60395866       0.18387190 </v>
  <v>      -0.22187509      -0.10024945      -1.16242076 </v>
  <v>      -0.31464688       0.10733697       0.18811358 </v>
  <v>      -0.47661447      -0.94004833       0.08477068 </v>
  <v>      -0.04616805      -0.57038672       0.29461109 </v>
  <v>       0.06475973       0.44695027      -0.28620533 </v>
  <v>       0.01219407      -0.12960210      -1.08530442 </v>
  <v>      -0.50467124       0.67855318       0.40637147 </v>
  <v>       0.34590014      -0.02861878      -0.44083349 </v>
  <v>      -0.42430985      -0.03153358       0.21681077 </v>
  <v>       0.17300173      -0.01047415      -0.28324413 </v>
  <v>       0.00156660       0.02401364       0.22982103 </v>
  <v>       0.08035716      -0.55109267      -0.01054445 </v>
  <v>       0.20523288      -0.49582879       0.16681257 </v>
  <v>      -0.21999326       0.41562058       0.30372319 </v>
  <v>       0.04082843       0.49718801       0.06386227 </v>
  <v>      -0.26717235      -0.19300635       0.04737149 </v>
  <v>       0.29428864      -0.24117010      -0.24819422 </v>
  <v>       0.51302414      -0.35823091      -0.51140822 </v>
  <v>      -0.12973083       0.09476953       0.39596721 </v>
  <v>      -0.37414445       0.11216873       0.94013430 </v>
  <v>      -0.20723810      -0.15697033      -0.60495313 </v>
  <v>      -0.22773003      -0.00350818      -1.15989323 </v>
  <v>       0.54361525      -0.13531489       0.91085215 </v>
  <v>       0.54182649       0.41912585      -0.11373127 </v>
  <v>       0.01162759       0.24739893       0.06230715 </v>
  <v>       0.40796004       0.49713462      -0.32815720 </v>
  <v>      -0.39681068       0.19948227       0.72015419 </v>
  <v>       0.21063738      -0.11671827       0.04870145 </v>
 </varray>
 <varray name="stress" >
  <v>      29.97657312       2.96813307      -2.32142647 </v>
  <v>       2.96813307      29.55321395      -2.35549202 </v>
  <v>      -2.32142647      -2.35549202       2.07768448 </v>
 </varray>
 <energy>
  <i name="e_fr_energy">   -122.44185882 </i>
  <i name="e_wo_entrp">   -122.44185882 </i>
  <i name="e_0_energy">   -122.44185882 </i>
  <i name="kinetic">      1.27892085 </i>
  <i name="la