AIMD-MLFF-ON-THE-FLY                    
            1
     8.567900    0.000000    0.000000
     0.000000    8.567900    0.000000
     0.000000    0.000000   18.113700
   Al
    37
Direct configuration=     1
   0.00000000  0.00000000  0.50099000
   0.00000000  0.00000000  0.72397000
   0.16667000  0.16667000  0.38950000
   0.16667000  0.16667000  0.61248000
   0.33333000  0.00000000  0.50099000
   0.33333000  0.00000000  0.72397000
   0.50000000  0.16667000  0.38950000
   0.50000000  0.16667000  0.61248000
   0.66667000  0.00000000  0.50099000
   0.66667000  0.00000000  0.72397000
   0.83333000  0.16667000  0.38950000
   0.83333000  0.16667000  0.61248000
   0.00000000  0.33333000  0.50099000
   0.00000000  0.33333000  0.72397000
   0.16667000  0.50000000  0.38950000
   0.16667000  0.50000000  0.61248000
   0.33333000  0.33333000  0.50099000
   0.33333000  0.33333000  0.72397000
   0.50000000  0.50000000  0.38950000
   0.50000000  0.50000000  0.61248000
   0.66667000  0.33333000  0.50099000
   0.66667000  0.33333000  0.72397000
   0.83333000  0.50000000  0.38950000
   0.83333000  0.50000000  0.61248000
   0.00000000  0.66667000  0.50099000
   0.00000000  0.66667000  0.72397000
   0.16667000  0.83333000  0.38950000
   0.16667000  0.83333000  0.61248000
   0.33333000  0.66667000  0.50099000
   0.33333000  0.66667000  0.72397000
   0.50000000  0.83333000  0.38950000
   0.50000000  0.83333000  0.61248000
   0.66667000  0.66667000  0.50099000
   0.66667000  0.66667000  0.72397000
   0.83333000  0.83333000  0.38950000
   0.83333000  0.83333000  0.61248000
   0.33679000  0.31865000  0.27603000
Direct configuration=     2
   0.00028156 -0.00049999  0.50107566
  -0.00039137  0.00044077  0.72398863
   0.16679111  0.16635836  0.38941435
   0.16605343  0.16674646  0.61266292
   0.33337591 -0.00021806  0.50105432
   0.33252980 -0.00048192  0.72374774
   0.49991896  0.16627081  0.38949760
   0.50029758  0.16645218  0.61251550
   0.66657600  0.00022730  0.50119686
   0.66670404 -0.00054128  0.72420273
   0.83322476  0.16755278  0.38935455
   0.83355771  0.16717531  0.61254067
   0.00002762  0.33456718  0.50136638
  -0.00009190  0.33320095  0.72395174
   0.16695210  0.49951993  0.38970506
   0.16686983  0.50007130  0.61259844
   0.33283992  0.33339232  0.50109851
   0.33339784  0.33352187  0.72370693
   0.50049666  0.49980628  0.38933196
   0.50003851  0.50049178  0.61261873
   0.66671176  0.33380243  0.50105943
   0.66694445  0.33369198  0.72393564
   0.83377738  0.50022967  0.38952981
   0.83311387  0.50049856  0.61259635
   0.00010371  0.66688920  0.50089164
  -0.00001198  0.66642120  0.72384015
   0.16685528  0.83327811  0.38926893
   0.16663906  0.83291364  0.61243877
   0.33369979  0.66710167  0.50084054
   0.33301494  0.66660962  0.72377504
   0.50000058  0.83343307  0.38946292
   0.50027436  0.83292680  0.61244915
   0.66646013  0.66618068  0.50125596
   0.66664963  0.66653857  0.72383308
   0.83339739  0.83259436  0.38937373
   0.83297458  0.83284688  0.61231052
   0.33673500  0.31863922  0.27599907
Direct configuration=     3
   0.00056449 -0.00099790  0.50115232
  -0.00077811  0.00088498  0.72400007
   0.16690889  0.16604369  0.38933039
   0.16543269  0.16681696  0.61285458
   0.33342172 -0.00043633  0.50110431
   0.33172976 -0.00096264  0.72351642
   0.49984242  0.16586785  0.38949731
   0.50059953  0.16622936  0.61255999
   0.66648104  0.00045536  0.50139429
   0.66673351 -0.00107813  0.72442830
   0.83311971  0.16843293  0.38922193
   0.83378473  0.16767631  0.61261313
   0.00005592  0.33580347  0.50172780
  -0.00018245  0.33307270  0.72392497
   0.16723511  0.49903912  0.38991153
   0.16706315  0.50014807  0.61272555
   0.33235059  0.33345551  0.50119342
   0.33346557  0.33371361  0.72343170
   0.50099313  0.49961210  0.38916521
   0.50008302  0.50098839  0.61276617
   0.66675323  0.33427505  0.50111438
   0.66721750  0.33405442  0.72389251
   0.83422420  0.50045979  0.38957222
   0.83289738  0.50100012  0.61272431
   0.00020904  0.66710655  0.50078485
  -0.00001954  0.66616782  0.72370296
   0.16703929  0.83322723  0.38905052
   0.16660405  0.83249891  0.61240925
   0.33406873  0.66753136  0.50067663
   0.33270006  0.66654824  0.72357160
   0.50000319  0.83353690  0.38943846
   0.50055176  0.83252460  0.61243017
   0.66624954  0.66569042  0.50151294
   0.66662476  0.66640237  0.72368886
   0.83346427  0.83186037  0.38925949
   0.83261964  0.83236507  0.61215125
   0.33667847  0.31863540  0.27599023
Direct configuration=     4
   0.00084854 -0.00149250  0.50121999
  -0.00116030  0.00133212  0.72400427
   0.16702297  0.16572601  0.38924820
   0.16480901  0.16688112  0.61305470
   0.33346745 -0.00065447  0.50113999
   0.33093025 -0.00144186  0.72327590
   0.49977043  0.16546156  0.38949927
   0.50090487  0.16600196  0.61261339
   0.66638562  0.00068386  0.50158202
   0.66675847 -0.00161036  0.72464680
   0.83301523  0.16931044  0.38910241
   0.83401042  0.16817228  0.61269722
   0.00008467  0.33703723  0.50207391
  -0.00027201  0.33294527  0.72388992
   0.16751917  0.49855783  0.39011956
   0.16724940  0.50023020  0.61286107
   0.33186300  0.33351917  0.50127495
   0.33353331  0.33390422  0.72314424
   0.50148935  0.49941732  0.38899976
   0.50013353  0.50148898  0.61292205
   0.66679450  0.33474731  0.50115488
   0.66748893  0.33441719  0.72384065
   0.83467022  0.50068998  0.38962739
   0.83268044  0.50150360  0.61286379
   0.00031643  0.66732175  0.50066968
  -0.00002269  0.66591001  0.72355853
   0.16722227  0.83317771  0.38884488
   0.16656477  0.83208664  0.61239134
   0.33443627  0.66795897  0.50049850
   0.33238552  0.66648671  0.72335974
   0.50000807  0.83364159  0.38942672
   0.50083119  0.83212375  0.61242306
   0.66603869  0.66520004  0.50176051
   0.66659513  0.66626151  0.72353739
   0.83353027  0.83112865  0.38915745
   0.83226595  0.83188580  0.61200237
   0.33662064  0.31863837  0.27600346
Direct configuration=     5
   0.00113359 -0.00198271  0.50127863
  -0.00153831  0.00178173  0.72400130
   0.16713306  0.16540533  0.38916789
   0.16418346  0.16693870  0.61326306
   0.33351320 -0.00087207  0.50116143
   0.33013160 -0.00191928  0.72302608
   0.49970315  0.16505220  0.38950365
   0.50121260  0.16577055  0.61267569
   0.66629024  0.00091252  0.50175975
   0.66677892 -0.00213793  0.72485832
   0.83291178  0.17018515  0.38899626
   0.83423417  0.16866261  0.61279272
   0.00011362  0.33826715  0.50240431
  -0.00036083  0.33281882  0.72384685
   0.16780441  0.49807637  0.39032920
   0.16742808  0.50031741  0.61300467
   0.33137822  0.33358274  0.50134326
   0.33360111  0.33409240  0.72284451
   0.50198533  0.49922194  0.38883565
   0.50019004  0.50199278  0.61308611
   0.66683553  0.33521865  0.50118097
   0.66775857  0.33478011  0.72378010
   0.83511525  0.50091983  0.38969550
   0.83246290  0.50200798  0.61301471
   0.00042632  0.66753457  0.50054622
  -0.00002148  0.66564806  0.72340699
   0.16740444  0.83312991  0.38865216
   0.16652109  0.83167774  0.61238497
   0.33480184  0.66838453  0.50030632
   0.33207169  0.66642597  0.72313954
   0.50001544  0.83374726  0.38942784
   0.50111170  0.83172449  0.61242785
   0.66582791  0.66471030  0.50199827
   0.66656047  0.66611606  0.72337872
   0.83359508  0.83040001  0.38906770
   0.83191410  0.83141008  0.61186404
   0.33656173  0.31864801  0.27603876
Direct configuration=     6
   0.00141943 -0.00246747  0.50132820
  -0.00191232  0.00223324  0.72399116
   0.16723892  0.16508133  0.38908951
   0.16355714  0.16698931  0.61347938
   0.33355906 -0.00108873  0.50116866
   0.32933384 -0.00239464  0.72276686
   0.49964070  0.16464019  0.38951058
   0.50152179  0.16553562  0.61274686
   0.66619539  0.00114097  0.50192719
   0.66679500 -0.00266065  0.72506289
   0.83280971  0.17105703  0.38890376
   0.83445554  0.16914675  0.61289951
   0.00014245  0.33949197  0.50271863
  -0.00044919  0.33269343  0.72379600
   0.16809092  0.49759512  0.39054056
   0.16759865  0.50040942  0.61315599
   0.33089732  0.33364572  0.50139852
   0.33366907  0.33427696  0.72253252
   0.50248097  0.49902595  0.38867294
   0.50025256  0.50249915  0.61325816
   0.66687633  0.33568841  0.50119265
   0.66802634  0.33514310  0.72371084
   0.83555900  0.50114884  0.38977669
   0.83224460  0.50251228  0.61317700
   0.00053921  0.66774485  0.50041445
  -0.00001595  0.66538224  0.72324853
   0.16758596  0.83308419  0.38847255
   0.16647281  0.83127310  0.61239004
   0.33516486  0.66880774  0.50010026
   0.33175893  0.66636694  0.72291112
   0.50002558  0.83385400  0.38944194
   0.50139237  0.83132715  0.61244453
   0.66561756  0.66422181  0.50222579
   0.66652054  0.66596614  0.72321289
   0.83365829  0.82967534  0.38899040
   0.83156472  0.83093902  0.61173639
   0.33650193  0.31866418  0.27609606
Direct configuration=     7
   0.00170604 -0.00294596  0.50136879
  -0.00228259  0.00268611  0.72397387
   0.16734019  0.16475395  0.38901316
   0.16293120  0.16703273  0.61370332
   0.33360503 -0.00130395  0.50116172
   0.32853727 -0.00286759  0.72249813
   0.49958319  0.16422594  0.38952020
   0.50183152  0.16529762  0.61282694
   0.66610150  0.00136892  0.50208404
   0.66680679 -0.00317841  0.72526056
   0.83270936  0.17192602  0.38882525
   0.83467380  0.16962415  0.61301740
   0.00017088  0.34071017  0.50301656
  -0.00053741  0.33256922  0.72373758
   0.16837890  0.49711444  0.39075374
   0.16776067  0.50050593  0.61331475
   0.33042132  0.33370771  0.50144095
   0.33373727  0.33445679  0.72220817
   0.50297605  0.49882937  0.38851167
   0.50032106  0.50300724  0.61343789
   0.66691700  0.33615595  0.50118991
   0.66829223  0.33550613  0.72363294
   0.83600108  0.50137647  0.38987114
   0.83202549  0.50301543  0.61335053
   0.00065551  0.66795246  0.50027437
  -0.00000618  0.66511288  0.72308328
   0.16776706  0.83304082  0.38830621
   0.16641976  0.83087361  0.61240641
   0.33552466  0.66922840  0.49988055
   0.33144752  0.66631058  0.72267449
   0.50003871  0.83396194  0.38946917
   0.50167240  0.83093195  0.61247310
   0.66540808  0.66373529  0.50244267
   0.66647514  0.66581200  0.72304001
   0.83371957  0.82895526  0.38892571
   0.83121850  0.83047369  0.61161950
   0.33644148  0.31868673  0.27617531
Direct configuration=     8
   0.00199327 -0.00341747  0.50140039
  -0.00264932  0.00313983  0.72394948
   0.16743654  0.16442310  0.38893892
   0.16230667  0.16706871  0.61393454
   0.33365114 -0.00151725  0.50114066
   0.32774203 -0.00333799  0.72221974
   0.49953070  0.16380989  0.38953272
   0.50214088  0.16505700  0.61291593
   0.66600904  0.00159623  0.50223011
   0.66681450 -0.00369105  0.72545141
   0.83261091  0.17279224  0.38876099
   0.83488837  0.17009439  0.61314613
   0.00019860  0.34192039  0.50329779
  -0.00062574  0.33244635  0.72367177
   0.16866851  0.49663460  0.39096885
   0.16791379  0.50060661  0.61348063
   0.32995111  0.33376827  0.50147081
   0.33380583  0.33463084  0.72187142
   0.50347045  0.49863212  0.38835188
   0.50039557  0.50351619  0.61362503
   0.66695759  0.33662065  0.50117278
   0.66855614  0.33586909  0.72354639
   0.83644125  0.50160233  0.38997899
   0.83180537  0.50351640  0.61353515
   0.00077572  0.66815735  0.50012601
   0.00000776  0.66484020  0.72291141
   0.16794809  0.83300014  0.38815328
   0.16636171  0.83048010  0.61243394
   0.33588065  0.66964628  0.49964745
   0.33113773  0.66625779  0.72242971
   0.50005510  0.83407120  0.38950968
   0.50195091  0.83053916  0.61251360
   0.66519971  0.66325142  0.50264843
   0.66642413  0.66565379  0.72286025
   0.83377864  0.82824050  0.38887381
   0.83087603  0.83001507  0.61151350
   0.33638064  0.31871552  0.27627642
Direct configuration=     9
   0.00228093 -0.00388122  0.50142300
  -0.00301281  0.00359388  0.72391803
   0.16752763  0.16408872  0.38886689
   0.16168458  0.16709696  0.61417266
   0.33369738 -0.00172819  0.50110555
   0.32694842 -0.00380566  0.72193152
   0.49948342  0.16339247  0.38954825
   0.50244894  0.16481424  0.61301384
   0.66591847  0.00182264  0.50236514
   0.66681832 -0.00419868  0.72563546
   0.83251458  0.17365595  0.38871129
   0.83509866  0.17055693  0.61328553
   0.00022534  0.34312112  0.50356205
  -0.00071445  0.33232502  0.72359879
   0.16895988  0.49615599  0.39118600
   0.16805770  0.50071109  0.61365335
   0.32948754  0.33382695  0.50148831
   0.33387487  0.33479813  0.72152223
   0.50396413  0.49843409  0.38819359
   0.50047603  0.50402520  0.61381928
   0.66699810  0.33708217  0.50114126
   0.66881797  0.33623186  0.72345120
   0.83687926  0.50182594  0.39010045
   0.83158413  0.50401418  0.61373070
   0.00090020  0.66835939  0.49996939
   0.00002582  0.66456464  0.72273310
   0.16812929  0.83296246  0.38801394
   0.16629839  0.83009334  0.61247249
   0.33623224  0.67006114  0.49940119
   0.33082990  0.66620948  0.72217681
   0.50007508  0.83418190  0.38956363
   0.50222696  0.83014903  0.61256596
   0.66499274  0.66277079  0.50284271
   0.66636730  0.66549168  0.72267378
   0.83383536  0.82753170  0.38883485
   0.83053806  0.82956424  0.61141846
   0.33631966  0.31875044  0.27639929
Direct configuration=    10
   0.00256882 -0.00433657  0.50143668
  -0.00337339  0.00404765  0.72387957
   0.16761316  0.16375086  0.38879716
   0.16106619  0.16711741  0.61441729
   0.33374378 -0.00193623  0.50105647
   0.32615680 -0.00427044  0.72163332
   0.49944148  0.16297401  0.38956698
   0.50275483  0.16456983  0.61312068
   0.66583031  0.00204783  0.50248894
   0.66681851 -0.00470120  0.72581272
   0.83242069  0.17451725  0.38867646
   0.83530400  0.17101140  0.61343533
   0.00025075  0.34431131  0.50380918
  -0.00080377  0.33220550  0.72351885
   0.16925313  0.49567892  0.39140526
   0.16819195  0.50081899  0.61383258
   0.32903149  0.33388310  0.50149367
   0.33394438  0.33495751  0.72116051
   0.50445678  0.49823522  0.38803685
   0.50056249  0.50453335  0.61402032
   0.66703863  0.33753987  0.50109546
   0.66907752  0.33659444  0.72334734
   0.83731482  0.50204674  0.39023565
   0.83136164  0.50450762  0.61393698
   0.00102925  0.66855860  0.49980459
   0.00004792  0.66428645  0.72254848
   0.16831081  0.83292804  0.38788835
   0.16622955  0.82971396  0.61252195
   0.33657888  0.67047275  0.49914200
   0.33052446  0.66616663  0.72191596
   0.50009887  0.83429436  0.38963118
   0.50249968  0.82976188  0.61263013
   0.66478748  0.66229421  0.50302509
   0.66630443  0.66532581  0.72248074
   0.83388964  0.82682932  0.38880900
   0.83020520  0.82912226  0.61133446
   0.33625884  0.31879135  0.27654383
Direct configuration=    11
   0.00285681 -0.00478285  0.50144146
  -0.00373130  0.00450052  0.72383420
   0.16769289  0.16340951  0.38872983
   0.16045277  0.16712988  0.61466795
   0.33379028 -0.00214085  0.50099352
   0.32536767 -0.00473194  0.72132498
   0.49940495  0.16255502  0.38958908
   0.50305774  0.16432435  0.61323647
   0.66574498  0.00227144  0.50260127
   0.66681526 -0.00519841  0.72598322
   0.83232960  0.17537605  0.38865676
   0.83550366  0.17145746  0.61359525
   0.00027459  0.34548941  0.50403903
  -0.00089401  0.33208808  0.72343218
   0.16954848  0.49520386  0.39162669
   0.16831608  0.50092990  0.61401791
   0.32858399  0.33393617  0.50148711
   0.33401441  0.33510784  0.72078624
   0.50494808  0.49803546  0.38788177
   0.50065483  0.50503980  0.61422783
   0.66707916  0.33799299  0.50103549
   0.66933457  0.33695668  0.72323483
   0.83774752  0.50226416  0.39038473
   0.83113791  0.50499561  0.61415373
   0.00116322  0.66875495  0.49963166
   0.00007391  0.66400602  0.72235770
   0.16849273  0.83289713  0.38777671
   0.16615503  0.82934275  0.61258210
   0.33692020  0.67088088  0.49887013
   0.33022185  0.66613018  0.72164729
   0.50012676  0.83440870  0.38971245
   0.50276813  0.82937820  0.61270602
   0.66458433  0.66182241  0.50319516
   0.66623535  0.66515641  0.72228132
   0.83394119  0.82613391  0.38879643
   0.82987805  0.82869015  0.61126156
   0.33619832  0.31883819  0.27670995
Direct configuration=    12
   0.00314242 -0.00521853  0.50143348
  -0.00409002  0.00494640  0.72377910
   0.16776837  0.16306533  0.38866712
   0.15984469  0.16714029  0.61492720
   0.33383666 -0.00234115  0.50092054
   0.32458379 -0.00519060  0.72100816
   0.49937184  0.16213495  0.38961564
   0.50335793  0.16407998  0.61336336
   0.66566183  0.00249366  0.50269984
   0.66681122 -0.00569201  0.72614251
   0.83224049  0.17622885  0.38865120
   0.83569985  0.17189873  0.61376494
   0.00029665  0.34665698  0.50425717
  -0.00098420  0.33197337  0.72333764
   0.16984391  0.49473070  0.39184623
   0.16843683  0.50104147  0.61421105
   0.32814298  0.33398739  0.50146733
   0.33408450  0.33525504  0.72040437
   0.50543799  0.49783357  0.38772796
   0.50074652  0.50554151  0.61444289
   0.66711733  0.33844322  0.50096590
   0.66958935  0.33731468  0.72311404
   0.83817900  0.50248204  0.39054482
   0.83091688  0.50548036  0.61437898
   0.00129985  0.66894770  0.49944942
   0.00009791  0.66372905  0.72215991
   0.16867418  0.83286605  0.38767646
   0.16607859  0.82897543  0.61265142
   0.33725891  0.67128455  0.49859026
   0.32992207  0.66609474  0.72137153
   0.50015805  0.83452364  0.38980482
   0.50303373  0.82899908  0.61279224
   0.66438264  0.66135408  0.50335153
   0.66616519  0.66498810  0.72207607
   0.83399008  0.82544457  0.38879504
   0.82955441  0.82826516  0.61120001
   0.33613759  0.31889163  0.27689982
Direct configuration=    13
   0.00342520 -0.00564277  0.50141278
  -0.00444957  0.00538449  0.72371435
   0.16783972  0.16271852  0.38860890
   0.15924269  0.16714850  0.61519461
   0.33388287 -0.00253676  0.50083778
   0.32380588 -0.00564598  0.72068311
   0.49934186  0.16171437  0.38964643
   0.50365505  0.16383697  0.61350118
   0.66558123  0.00271412  0.50278462
   0.66680631 -0.00618151  0.72629049
   0.83215356  0.17707494  0.38865986
   0.83589220  0.17233466  0.61394408
   0.00031675  0.34781286  0.50446361
  -0.00107432  0.33186161  0.72323547
   0.17013915  0.49425987  0.39206345
   0.16855395  0.50115367  0.61441154
   0.32770916  0.33403664  0.50143462
   0.33415465  0.33539879  0.72001524
   0.50592639  0.49762937  0.38757529
   0.50083740  0.50603789  0.61466499
   0.66715295  0.33889023  0.50088695
   0.66984153  0.33766786  0.72298521
   0.83860908  0.50270032  0.39071567
   0.83069885  0.50596151  0.61461228
   0.00143926  0.66913657  0.49925825
   0.00011971  0.66345602  0.72195548
   0.16885505  0.83283473  0.38758752
   0.16600008  0.82861244  0.61272955
   0.33759467  0.67168323  0.49830282
   0.32962538  0.66606039  0.72108903
   0.50019305  0.83463910  0.38990811
   0.50329614  0.82862504  0.61288854
   0.66418274  0.66088971  0.50349410
   0.66609392  0.66482106  0.72186545
   0.83403602  0.82476205  0.38880489
   0.82923464  0.82784803  0.61114969
   0.33607682  0.31895145  0.27711410
Direct configuration=    14
   0.00370473 -0.00605470  0.50137946
  -0.00480992  0.00581399  0.72364004
   0.16790710  0.16236938  0.38855502
   0.15864751  0.16715443  0.61546970
   0.33392885 -0.00272728  0.50074550
   0.32303470 -0.00609762  0.72035009
   0.49931473  0.16129387  0.38968117
   0.50394871  0.16359555  0.61364969
   0.66550356  0.00293246  0.50285557
   0.66680046 -0.00666635  0.72642706
   0.83206899  0.17791359  0.38868283
   0.83608034  0.17276469  0.61413230
   0.00033469  0.34895582  0.50465837
  -0.00116433  0.33175308  0.72312591
   0.17043395  0.49379182  0.39227788
   0.16866721  0.50126644  0.61461889
   0.32728324  0.33408377  0.50138927
   0.33422487  0.33553877  0.71961917
   0.50641313  0.49742267  0.38742366
   0.50092727  0.50652830  0.61489359
   0.66718579  0.33933364  0.50079897
   0.67009073  0.33801557  0.72284860
   0.83903752  0.50291892  0.39089701
   0.83048410  0.50643868  0.61485314
   0.00158160  0.66932127  0.49905855
   0.00013907  0.66318736  0.72174478
   0.16903519  0.83280309  0.38750980
   0.16591937  0.82825424  0.61281609
   0.33792714  0.67207638  0.49800824
   0.32933205  0.66602722  0.72080019
   0.50023209  0.83475495  0.39002212
   0.50355505  0.82825665  0.61299462
   0.66398495  0.66042981  0.50362284
   0.66602153  0.66465545  0.72164995
   0.83407872  0.82408717  0.38882599
   0.82891912  0.82743951  0.61111046
   0.33601619  0.31901739  0.27735348
Direct configuration=    15
   0.00398054 -0.00645347  0.50133365
  -0.00517101  0.00623408  0.72355632
   0.16797068  0.16201820  0.38850526
   0.15805996  0.16715796  0.61575197
   0.33397452 -0.00291227  0.50064403
   0.32227109 -0.00654503  0.72000945
   0.49929016  0.16087414  0.38971954
   0.50423850  0.16335598  0.61380863
   0.66542921  0.00314829  0.50291272
   0.66679359 -0.00714595  0.72655214
   0.83198699  0.17874403  0.38872014
   0.83626391  0.17318822  0.61432920
   0.00035029  0.35008456  0.50484151
  -0.00125416  0.33164802  0.72300926
   0.17072802  0.49332701  0.39248904
   0.16877638  0.50137974  0.61483256
   0.32686600  0.33412868  0.50133165
   0.33429516  0.33567464  0.71921657
   0.50689804  0.49721330  0.38727291
   0.50101597  0.50701209  0.61512809
   0.66721559  0.33977303  0.50070230
   0.67033657  0.33835714  0.72270447
   0.83946409  0.50313772  0.39108852
   0.83027296  0.50691148  0.61510104
   0.00172697  0.66950149  0.49885075
   0.00015576  0.66292357  0.72152822
   0.16921443  0.83277107  0.38744317
   0.16583633  0.82790133  0.61291065
   0.33825595  0.67246341  0.49770704
   0.32904232  0.66599533  0.72050541
   0.50027546  0.83487108  0.39014663
   0.50381011  0.82789449  0.61311019
   0.66378961  0.65997491  0.50373772
   0.66594802  0.66449144  0.72143009
   0.83411788  0.82342075  0.38885834
   0.82860822  0.82704036  0.61108214
   0.33595588  0.31908918  0.27761870
Direct configuration=    16
   0.00425219 -0.00683822  0.50127553
  -0.00553275  0.00664392  0.72346336
   0.16803064  0.16166536  0.38845936
   0.15748087  0.16715903  0.61604087
   0.33401982 -0.00309132  0.50053370
   0.32151591 -0.00698767  0.71966154
   0.49926785  0.16045585  0.38976119
   0.50452399  0.16311856  0.61397770
   0.66535852  0.00336123  0.50295610
   0.66678563 -0.00761971  0.72666567
   0.83190773  0.17956544  0.38877180
   0.83644252  0.17360462  0.61453433
   0.00036341  0.35119777  0.50501308
  -0.00134376  0.33154670  0.72288578
   0.17102107  0.49286591  0.39269640
   0.16888121  0.50149347  0.61505200
   0.32645818  0.33417122  0.50126212
   0.33436554  0.33580606  0.71880784
   0.50738088  0.49700109  0.38712289
   0.50110329  0.50748859  0.61536790
   0.66724212  0.34020797  0.50059733
   0.67057861  0.33869187  0.72255313
   0.83988850  0.50335661  0.39128984
   0.83006570  0.50737948  0.61535543
   0.00187551  0.66967691  0.49863534
   0.00016958  0.66266514  0.72130623
   0.16939258  0.83273861  0.38738751
   0.16575085  0.82755420  0.61301276
   0.33858069  0.67284371  0.49739976
   0.32875647  0.66596478  0.72020513
   0.50032348  0.83498734  0.39028135
   0.50406100  0.82753915  0.61323488
   0.66359705  0.65952553  0.50383876
   0.66587342  0.66432924  0.72120639
   0.83415323  0.82276368  0.38890190
   0.82830236  0.82665136  0.61106453
   0.33589610  0.31916650  0.27791056
Direct configuration=    17
   0.00451920 -0.00720811  0.50120530
  -0.00589505  0.00704267  0.72336132
   0.16808719  0.16131127  0.38841705
   0.15691109  0.16715753  0.61633580
   0.33406468 -0.00326395  0.50041490
   0.32077010 -0.00742499  0.71930677
   0.49924751  0.16003978  0.38980570
   0.50480472  0.16288360  0.61415653
   0.66529185  0.00357090  0.50298581
   0.66677652 -0.00808697  0.72676760
   0.83183139  0.18037699  0.38883777
   0.83661580  0.17401325  0.61474719
   0.00037387  0.35229405  0.50517319
  -0.00143304  0.33144937  0.72275581
   0.17131281  0.49240903  0.39289939
   0.16898151  0.50160755  0.61527664
   0.32606057  0.33421130  0.50118112
   0.33443600  0.33593271  0.71839343
   0.50786139  0.49678587  0.38697345
   0.50118905  0.50795711  0.61561235
   0.66726511  0.34063797  0.50048448
   0.67081642  0.33901904  0.72239490
   0.84031044  0.50357544  0.39150055
   0.82986265  0.50784227  0.61561573
   0.00202733  0.66984721  0.49841283
   0.00018030  0.66241257  0.72107928
   0.16956941  0.83270567  0.38734268
   0.16566286  0.82721339  0.61312198
   0.33890097  0.67321666  0.49708699
   0.32847476  0.66593567  0.71989983
   0.50037643  0.83510356  0.39042600
   0.50430736  0.82719124  0.61336831
   0.66340763  0.65908223  0.50392601
   0.66579775  0.66416901  0.72097940
   0.83418448  0.82211683  0.38895662
   0.82800194  0.82627326  0.61105741
   0.33583705  0.31924902  0.27822987
Direct configuration=    18
   0.00478110 -0.00756233  0.50112325
  -0.00625775  0.00742948  0.72325044
   0.16814055  0.16095638  0.38837798
   0.15635151  0.16715343  0.61663615
   0.33410901 -0.00342971  0.50028804
   0.32003460 -0.00785639  0.71894558
   0.49922883  0.15962671  0.38985264
   0.50508024  0.16265143  0.61434473
   0.66522953  0.00377693  0.50300198
   0.66676620 -0.00854706  0.72685790
   0.83175814  0.18117780  0.38891796
   0.83678335  0.17441346  0.61496727
   0.00038155  0.35337200  0.50532193
  -0.00152194  0.33135628  0.72261965
   0.17160293  0.49195686  0.39309744
   0.16907706  0.50172188  0.61550587
   0.32567394  0.33424880  0.50108912
   0.33450655  0.33605424  0.71797382
   0.50833926  0.49656748  0.38682441
   0.50127303  0.50841695  0.61586080
   0.66728429  0.34106255  0.50036420
   0.67104954  0.33933789  0.72223014
   0.84072958  0.50379407  0.39172020
   0.82966409  0.50829941  0.61588130
   0.00218252  0.67001207  0.49818378
   0.00018771  0.66216637  0.72084784
   0.16974468  0.83267218  0.38730852
   0.16557227  0.82687943  0.61323779
   0.33921635  0.67358158  0.49676932
   0.32819743  0.66590805  0.71959000
   0.50043462  0.83521957  0.39058023
   0.50454883  0.82685137  0.61351006
   0.66322167  0.65864554  0.50399956
   0.66572108  0.66401097  0.72074968
   0.83421136  0.82148112  0.38902241
   0.82770737  0.82590684  0.61106050
   0.33577894  0.31933639  0.27857750
Direct configuration=    19
   0.00503743 -0.00790008  0.50102967
  -0.00662068  0.00780351  0.72313096
   0.16819097  0.16060118  0.38834177
   0.15580301  0.16714665  0.61694124
   0.33415274 -0.00358813  0.50015357
   0.31931039 -0.00828128  0.71857845
   0.49921152  0.15921746  0.38990152
   0.50535007  0.16242237  0.61454186
   0.66517190  0.00397894  0.50300478
   0.66675462 -0.00899928  0.72693656
   0.83168815  0.18196701  0.38901227
   0.83694482  0.17480459  0.61519399
   0.00038632  0.35443020  0.50545944
  -0.00161036  0.33126766  0.72247765
   0.17189113  0.49150990  0.39328994
   0.16916766  0.50183634  0.61573908
   0.32529907  0.33428362  0.50098663
   0.33457718  0.33617035  0.71754952
   0.50881413  0.49634576  0.38667559
   0.50135505  0.50886742  0.61611254
   0.66729940  0.34148117  0.50023699
   0.67127749  0.33964767  0.72205922
   0.84114556  0.50401231  0.39194830
   0.82947032  0.50875046  0.61615150
   0.00234118  0.67017115  0.49794878
   0.00019161  0.66192706  0.72061240
   0.16991813  0.83263813  0.38728484
   0.16547903  0.82655287  0.61335967
   0.33952642  0.67393781  0.49644740
   0.32792475  0.66588199  0.71927616
   0.50049830  0.83533518  0.39074368
   0.50478506  0.82652016  0.61365969
   0.66303951  0.65821600  0.50405952
   0.66564344  0.66385531  0.72051781
   0.83423362  0.82085747  0.38909913
   0.82741908  0.82555284  0.61107350
   0.33572198  0.31942823  0.27895435
Direct configuration=    20
   0.00528770 -0.00822061  0.50092492
  -0.00698366  0.00816395  0.72300314
   0.16823870  0.16024623  0.38830802
   0.15526649  0.16713716  0.61725041
   0.33419580 -0.00373876  0.50001197
   0.31859848 -0.00869904  0.71820589
   0.49919528  0.15881291  0.38995181
   0.50561374  0.16219678  0.61474743
   0.66511927  0.00417657  0.50299443
   0.66674171 -0.00944293  0.72700360
   0.83162156  0.18274373  0.38912053
   0.83709983  0.17518599  0.61542676
   0.00038806  0.35546722  0.50558590
  -0.00169820  0.33118376  0.72233017
   0.17217711  0.49106865  0.39347626
   0.16925316  0.50195081  0.61597563
   0.32493673  0.33431569  0.50087420
   0.33464788  0.33628070  0.71712106
   0.50928563  0.49612055  0.38652679
   0.50143490  0.50930781  0.61636688
   0.66731015  0.34189330  0.50010335
   0.67149980  0.33994764  0.72188253
   0.84155800  0.50423000  0.39218429
   0.82928162  0.50919496  0.61642566
   0.00250339  0.67032415  0.49770844
   0.00019182  0.66169512  0.72037348
   0.17008946  0.83260347  0.38727145
   0.16538313  0.82623427  0.61348709
   0.33983074  0.67428466  0.49612190
   0.32765695  0.66585755  0.71895884
   0.50056774  0.83545017  0.39091595
   0.50501568  0.82619822  0.61381669
   0.66286149  0.65779416  0.50410608
   0.66556493  0.66370222  0.72028436
   0.83425102  0.82024679  0.38918664
   0.82713751  0.82521200  0.61109609
   0.33566640  0.31952415  0.27936135
Direct configuration=    21
   0.00553240 -0.00852656  0.50081236
  -0.00734694  0.00851250  0.72287066
   0.16827854  0.15988978  0.38827793
   0.15474911  0.16712016  0.61755818
   0.33423723 -0.00387942  0.49985963
   0.31789835 -0.00910813  0.71782476
   0.49918418  0.15841621  0.39000671
   0.50586704  0.16197706  0.61496137
   0.66507643  0.00436787  0.50297188
   0.66673014 -0.00987870  0.72706314
   0.83156103  0.18351266  0.38924658
   0.83724016  0.17555388  0.61566434
   0.00038608  0.35647329  0.50569556
  -0.00178767  0.33110716  0.72217913
   0.17246581  0.49063712  0.39366375
   0.16932463  0.50206225  0.61621293
   0.32459471  0.33433935  0.50075243
   0.33471956  0.33637202  0.71668216
   0.50974803  0.49589380  0.38638158
   0.50151830  0.50973199  0.61662193
   0.66731852  0.34229107  0.49995840
   0.67171588  0.34024361  0.72169786
   0.84196216  0.50443824  0.39243278
   0.82909475  0.50961897  0.61670448
   0.00267258  0.67047679  0.49746222
   0.00019396  0.66146815  0.72013219
   0.17026016  0.83257355  0.38727297
   0.16527816  0.82593224  0.61362101
   0.34012299  0.67462009  0.49578890