  192  192 3000    1
  0.1158988E+02  0.1323607E-08  0.1323607E-08  0.1270171E-08  0.1000000E-14
    300.0000000000000     
  CAR 
 AIMD-MLFF-ON-THE-FLY                    
   1200      1    768
