 running  128 mpi-ranks, on    1 nodes
 distrk:  each k-point on  128 cores,    1 groups
 distr:  one band on    1 cores,  128 groups
 vasp.6.4.0 14Feb23 (build Mar 16 2023 23:21:51) complex                         
 POSCAR found type information on POSCAR ZrLiLaO 
 POSCAR found :  4 types and     192 ions
 Reading from existing POTCAR
 scaLAPACK will be used selectively (only on CPU)
 -----------------------------------------------------------------------------
|                                                                             |
|           W    W    AA    RRRRR   N    N  II  N    N   GGGG   !!!           |
|           W    W   A  A   R    R  NN   N  II  NN   N  G    G  !!!           |
|           W    W  A    A  R    R  N N  N  II  N N  N  G       !!!           |
|           W WW W  AAAAAA  RRRRR   N  N N  II  N  N N  G  GGG   !            |
|           WW  WW  A    A  R   R   N   NN  II  N   NN  G    G                |
|           W    W  A    A  R    R  N    N  II  N    N   GGGG   !!!           |
|                                                                             |
|     For optimal performance we recommend to set                             |
|       NCORE = 2 up to number-of-cores-per-socket                            |
|     NCORE specifies how many cores store one orbital (NPAR=cpu/NCORE).      |
|     This setting can greatly improve the performance of VASP for DFT.       |
|     The default, NCORE=1 might be grossly inefficient on modern             |
|     multi-core architectures or massively parallel machines. Do your        |
|     own testing! More info at https://www.vasp.at/wiki/index.php/NCORE      |
|     Unfortunately you need to use the default for GW and RPA                |
|     calculations (for HF NCORE is supported but not extensively tested      |
|     yet).                                                                   |
|                                                                             |
 -----------------------------------------------------------------------------

 Reading from existing POTCAR
 LDA part: xc-table for Pade appr. of Perdew
 POSCAR found type information on POSCAR ZrLiLaO 
 POSCAR found :  4 types and     192 ions
 Machine learning selected
 Setting communicators for machine learning
 Initializing machine learning
 ML_MB is set to:             1500
 ML_MCONF is set to:          1500
 POSCAR, INCAR and KPOINTS ok, starting setup
 FFT: planning ... GRIDC
 FFT: planning ... GRID_SOFT
 FFT: planning ... GRID
 WAVECAR not read
 entering main loop
       N       E                     dE             d eps       ncg     rms          rms(c)
DAV:   1     0.153344889927E+05    0.15334E+05   -0.43126E+05  1536   0.181E+03
DAV:   2     0.243415367308E+04   -0.12900E+05   -0.11687E+05  1536   0.478E+02
DAV:   3    -0.114461193374E+04   -0.35788E+04   -0.34330E+04  2304   0.207E+02
DAV:   4    -0.156519154315E+04   -0.42058E+03   -0.41904E+03  2944   0.847E+01
DAV:   5    -0.159209780035E+04   -0.26906E+02   -0.26885E+02  3072   0.176E+01    0.118E+02
DAV:   6    -0.137584606542E+04    0.21625E+03   -0.14524E+03  2560   0.422E+01    0.548E+01
DAV:   7    -0.137980794510E+04   -0.39619E+01   -0.14038E+02  2816   0.181E+01    0.277E+01
DAV:   8    -0.138028812969E+04   -0.48018E+00   -0.15396E+01  2816   0.544E+00    0.582E+00
DAV:   9    -0.138019742209E+04    0.90708E-01   -0.52521E+00  2304   0.259E+00    0.277E+00
DAV:  10    -0.138021141145E+04   -0.13989E-01   -0.12179E+00  2304   0.142E+00    0.131E+00
DAV:  11    -0.138020782447E+04    0.35870E-02   -0.13208E-01  2816   0.507E-01    0.332E-01
DAV:  12    -0.138021022175E+04   -0.23973E-02   -0.14895E-02  2560   0.176E-01    0.242E-01
DAV:  13    -0.138021074133E+04   -0.51958E-03   -0.26626E-03  2560   0.726E-02    0.450E-02
DAV:  14    -0.138021078991E+04   -0.48586E-04   -0.50840E-04  2816   0.336E-02    0.336E-02
DAV:  15    -0.138021079867E+04   -0.87583E-05   -0.14521E-04  2176   0.151E-02    0.343E-02
DAV:  16    -0.138021079882E+04   -0.15265E-06   -0.64192E-05  2176   0.117E-02
      1 T=   300. E= -.13728010E+04 F= -.13802108E+04 E0= -.13802108E+04  EK= 0.74098E+01 SP= 0.00E+00 SK= 0.00E+00
 bond charge predicted
       N       E                     dE             d eps       ncg     rms          rms(c)
DAV:   1    -0.138001974059E+04    0.19106E+00   -0.53445E+01  1536   0.939E+00    0.108E+00
DAV:   2    -0.138019111739E+04   -0.17138E+00   -0.17793E+00  2688   0.269E+00    0.522E-01
DAV:   3    -0.138019054905E+04    0.56834E-03   -0.63681E-02  2304   0.329E-01    0.307E-01
DAV:   4    -0.138019015074E+04    0.39832E-03   -0.17555E-02  2816   0.209E-01    0.133E-01
DAV:   5    -0.138019025310E+04   -0.10236E-03   -0.33290E-03  2432   0.815E-02    0.586E-02
DAV:   6    -0.138019027213E+04   -0.19029E-04   -0.63569E-04  2816   0.362E-02    0.336E-02
DAV:   7    -0.138019027412E+04   -0.19926E-05   -0.15374E-04  2688   0.172E-02    0.164E-02
DAV:   8    -0.138019027299E+04    0.11267E-05   -0.22029E-05  1920   0.807E-03
      2 T=   299. E= -.13728041E+04 F= -.13801903E+04 E0= -.13801903E+04  EK= 0.73861E+01 SP= 0.81E-04 SK= 0.72E-07
 bond charge predicted
       N       E                     dE             d eps       ncg     rms          rms(c)
DAV:   1    -0.137993431007E+04    0.25596E+00   -0.52979E+01  1536   0.923E+00    0.109E+00
DAV:   2    -0.138010544982E+04   -0.17114E+00   -0.17766E+00  2688   0.269E+00    0.526E-01
DAV:   3    -0.138010492861E+04    0.52121E-03   -0.64210E-02  2304   0.326E-01    0.310E-01
DAV:   4    -0.138010462287E+04    0.30574E-03   -0.18207E-02  2816   0.205E-01    0.135E-01
DAV:   5    -0.138010470993E+04   -0.87067E-04   -0.31528E-03  2432   0.788E-02    0.582E-02
DAV:   6    -0.138010472122E+04   -0.11290E-04   -0.57153E-04  2816   0.351E-02    0.328E-02
DAV:   7    -0.138010472301E+04   -0.17875E-05   -0.14663E-04  2688   0.165E-02    0.159E-02
DAV:   8    -0.138010472177E+04    0.12422E-05   -0.18667E-05  1920   0.763E-03
      3 T=   296. E= -.13728041E+04 F= -.13801047E+04 E0= -.13801047E+04  EK= 0.73009E+01 SP= -.34E-03 SK= 0.27E-05
 bond charge predicted
       N       E                     dE             d eps       ncg     rms          rms(c)
DAV:   1    -0.137978858705E+04    0.31614E+00   -0.51994E+01  1536   0.914E+00    0.109E+00
DAV:   2    -0.137995499638E+04   -0.16641E+00   -0.17278E+00  2560   0.266E+00    0.527E-01
DAV:   3    -0.137995602253E+04   -0.10262E-02   -0.75338E-02  2432   0.348E-01    0.310E-01
DAV:   4    -0.137995569517E+04    0.32736E-03   -0.16861E-02  2816   0.195E-01    0.132E-01
DAV:   5    -0.137995573157E+04   -0.36397E-04   -0.26708E-03  2432   0.740E-02    0.535E-02
DAV:   6    -0.137995576705E+04   -0.35480E-04   -0.58577E-04  2816   0.344E-02    0.338E-02
DAV:   7    -0.137995576282E+04    0.42323E-05   -0.14218E-04  2688   0.167E-02    0.160E-02
DAV:   8    -0.137995576187E+04    0.94450E-06   -0.18076E-05  1792   0.767E-03
      4 T=   290. E= -.13728040E+04 F= -.13799558E+04 E0= -.13799558E+04  EK= 0.71551E+01 SP= -.33E-02 SK= 0.69E-04
 bond charge predicted
       N       E                     dE             d eps       ncg     rms          rms(c)
DAV:   1    -0.137958511930E+04    0.37064E+00   -0.50525E+01  1536   0.902E+00    0.108E+00
DAV:   2    -0.137974621178E+04   -0.16109E+00   -0.16724E+00  2560   0.262E+00    0.525E-01
DAV:   3    -0.137974749359E+04   -0.12818E-02   -0.76422E-02  2560   0.342E-01    0.313E-01
DAV:   4    -0.137974685898E+04    0.63461E-03   -0.12314E-02  2816   0.162E-01    0.134E-01
DAV:   5    -0.137974684158E+04    0.17404E-04   -0.24548E-03  2432   0.714E-02    0.482E-02
DAV:   6    -0.137974687639E+04   -0.34810E-04   -0.52606E-04  2816   0.317E-02    0.330E-02
DAV:   7    -0.137974687192E+04    0.44705E-05   -0.93216E-05  2688   0.134E-02
      5 T=   282. E= -.13728037E+04 F= -.13797469E+04 E0= -.13797469E+04  EK= 0.69552E+01 SP= -.13E-01 SK= 0.49E-03
 bond charge predicted
       N       E                     dE             d eps       ncg     rms          rms(c)
DAV:   1    -0.137932763557E+04    0.41924E+00   -0.48632E+01  1536   0.885E+00    0.108E+00
DAV:   2    -0.137948286433E+04   -0.15523E+00   -0.16115E+00  2560   0.257E+00    0.521E-01
DAV:   3    -0.137948404579E+04   -0.11815E-02   -0.73454E-02  2560   0.336E-01    0.312E-01
DAV:   4    -0.137948344367E+04    0.60212E-03   -0.11820E-02  2816   0.159E-01    0.133E-01
DAV:   5    -0.137948344714E+04   -0.34722E-05   -0.23920E-03  2560   0.694E-02    0.481E-02
DAV:   6    -0.137948347525E+04   -0.28102E-04   -0.46738E-04  2816   0.291E-02    0.324E-02
DAV:   7    -0.137948347055E+04    0.46924E-05   -0.86782E-05  2688   0.130E-02
      6 T=   272. E= -.13728033E+04 F= -.13794835E+04 E0= -.13794835E+04  EK= 0.67110E+01 SP= -.33E-01 SK= 0.20E-02
 bond charge predicted
       N       E                     dE             d eps       ncg     rms          rms(c)
DAV:   1    -0.137902402059E+04    0.45945E+00   -0.46395E+01  1536   0.866E+00    0.107E+00
DAV:   2    -0.137917186930E+04   -0.14785E+00   -0.15346E+00  2560   0.251E+00    0.516E-01
DAV:   3    -0.137917260533E+04   -0.73603E-03   -0.66446E-02  2432   0.327E-01    0.308E-01
DAV:   4    -0.137917228934E+04    0.31600E-03   -0.14598E-02  2816   0.184E-01    0.126E-01
DAV:   5    -0.137917236385E+04   -0.74509E-04   -0.24110E-03  2432   0.678E-02    0.521E-02
DAV:   6    -0.137917238318E+04   -0.19334E-04   -0.42017E-04  2816   0.289E-02    0.309E-02
DAV:   7    -0.137917237949E+04    0.36874E-05   -0.94100E-05  2432   0.141E-02
      7 T=   261. E= -.13728028E+04 F= -.13791724E+04 E0= -.13791724E+04  EK= 0.64336E+01 SP= -.70E-01 SK= 0.62E-02
 bond charge predicted
       N       E                     dE             d eps       ncg     rms          rms(c)
DAV:   1    -0.137868143836E+04    0.49094E+00   -0.43908E+01  1536   0.843E+00    0.105E+00
DAV:   2    -0.137882128169E+04   -0.13984E+00   -0.14512E+00  2560   0.244E+00    0.509E-01
DAV:   3    -0.137882218851E+04   -0.90682E-03   -0.65260E-02  2560   0.318E-01    0.306E-01
DAV:   4    -0.137882165892E+04    0.52959E-03   -0.10713E-02  2816   0.151E-01    0.126E-01
DAV:   5    -0.137882169531E+04   -0.36393E-04   -0.20939E-03  2432   0.638E-02    0.469E-02
DAV:   6    -0.137882171650E+04   -0.21192E-04   -0.40148E-04  2816   0.276E-02    0.307E-02
DAV:   7    -0.137882171275E+04    0.37565E-05   -0.82134E-05  2560   0.128E-02
      8 T=   249. E= -.13728024E+04 F= -.13788217E+04 E0= -.13788217E+04  EK= 0.61355E+01 SP= -.13E+00 SK= 0.15E-01
 bond charge predicted
       N       E                     dE             d eps       ncg     rms          rms(c)
DAV:   1    -0.137830825467E+04    0.51346E+00   -0.41279E+01  1536   0.819E+00    0.103E+00
DAV:   2    -0.137843991277E+04   -0.13166E+00   -0.13657E+00  2560   0.236E+00    0.499E-01
DAV:   3    -0.137844047178E+04   -0.55901E-03   -0.58523E-02  2432   0.309E-01    0.299E-01
DAV:   4    -0.137844019314E+04    0.27864E-03   -0.12744E-02  2816   0.172E-01    0.119E-01
DAV:   5    -0.137844027435E+04   -0.81211E-04   -0.20710E-03  2304   0.627E-02    0.493E-02
DAV:   6    -0.137844029236E+04   -0.18006E-04   -0.37595E-04  2816   0.299E-02    0.293E-02
DAV:   7    -0.137844028887E+04    0.34884E-05   -0.80200E-05  2432   0.132E-02
      9 T=   236. E= -.13728020E+04 F= -.13784403E+04 E0= -.13784403E+04  EK= 0.58295E+01 SP= -.22E+00 SK= 0.33E-01
 bond charge predicted
       N       E                     dE             d eps       ncg     rms          rms(c)
DAV:   1    -0.137791376170E+04    0.52653E+00   -0.38598E+01  1536   0.793E+00    0.101E+00
DAV:   2    -0.137803702979E+04   -0.12327E+00   -0.12783E+00  2560   0.229E+00    0.486E-01
DAV:   3    -0.137803752910E+04   -0.49931E-03   -0.54444E-02  2432   0.299E-01    0.292E-01
DAV:   4    -0.137803727678E+04    0.25232E-03   -0.11816E-02  2816   0.166E-01    0.115E-01
DAV:   5    -0.137803735048E+04   -0.73693E-04   -0.18337E-03  2176   0.598E-02    0.467E-02
DAV:   6    -0.137803737589E+04   -0.25414E-04   -0.41103E-04  2816   0.321E-02    0.298E-02
DAV:   7    -0.137803737212E+04    0.37724E-05   -0.97584E-05  2560   0.143E-02
     10 T=   224. E= -.13728016E+04 F= -.13780374E+04 E0= -.13780374E+04  EK= 0.55277E+01 SP= -.36E+00 SK= 0.64E-01
 bond charge predicted
       N       E                     dE             d eps       ncg     rms          rms(c)
DAV:   1    -0.137750681555E+04    0.53056E+00   -0.35965E+01  1536   0.766E+00    0.981E-01
DAV:   2    -0.137762194144E+04   -0.11513E+00   -0.11935E+00  2560   0.221E+00    0.472E-01
DAV:   3    -0.137762241172E+04   -0.47028E-03   -0.50496E-02  2432   0.288E-01    0.284E-01
DAV:   4    -0.137762218425E+04    0.22747E-03   -0.10920E-02  2816   0.160E-01    0.111E-01
DAV:   5    -0.137762225714E+04   -0.72888E-04   -0.16969E-03  2176   0.575E-02    0.452E-02
DAV:   6    -0.137762228093E+04   -0.23799E-04   -0.37815E-04  2816   0.308E-02    0.289E-02
DAV:   7    -0.137762227728E+04    0.36591E-05   -0.90987E-05  2560   0.139E-02
     11 T=   212. E= -.13728013E+04 F= -.13776223E+04 E0= -.13776223E+04  EK= 0.52422E+01 SP= -.53E+00 SK= 0.11E+00
     12 T=   202. E= -.13728042E+04 F= -.13772079E+04 E0= -.13772079E+04  EK= 0.49843E+01 SP= -.76E+00 SK= 0.18E+00
     13 T=   193. E= -.13728040E+04 F= -.13767964E+04 E0= -.13767964E+04  EK= 0.47642E+01 SP= -.11E+01 SK= 0.28E+00
     14 T=   186. E= -.13728036E+04 F= -.13763985E+04 E0= -.13763985E+04  EK= 0.45910E+01 SP= -.14E+01 SK= 0.42E+00
 bond charge predicted
       N       E                     dE             d eps       ncg     rms          rms(c)
DAV:   1    -0.137433291558E+04    0.32894E+01   -0.47818E+02  1536   0.281E+01
DAV:   2    -0.137603152691E+04   -0.16986E+01   -0.16986E+01  2560   0.805E+00
DAV:   3    -0.137613590386E+04   -0.10438E+00   -0.10438E+00  2944   0.975E-01
DAV:   4    -0.137613989164E+04   -0.39878E-02   -0.39878E-02  2304   0.218E-01    0.264E+00
DAV:   5    -0.137603328553E+04    0.10661E+00   -0.19065E-01  2432   0.658E-01    0.162E+00
DAV:   6    -0.137601233085E+04    0.20955E-01   -0.16593E-01  2176   0.530E-01    0.434E-01
DAV:   7    -0.137601415457E+04   -0.18237E-02   -0.33693E-02  2688   0.271E-01    0.194E-01
DAV:   8    -0.137601401744E+04    0.13714E-03   -0.40417E-03  2944   0.897E-02    0.933E-02
DAV:   9    -0.137601397197E+04    0.45470E-04   -0.70009E-04  2560   0.377E-02    0.423E-02
DAV:  10    -0.137601397409E+04   -0.21280E-05   -0.15521E-04  2688   0.179E-02    0.174E-02
DAV:  11    -0.137601397449E+04   -0.40117E-06   -0.57390E-05  2048   0.101E-02
     15 T=   181. E= -.13727965E+04 F= -.13760140E+04 E0= -.13760140E+04  EK= 0.44732E+01 SP= -.18E+01 SK= 0.58E+00
     16 T=   179. E= -.13727945E+04 F= -.13756613E+04 E0= -.13756613E+04  EK= 0.44205E+01 SP= -.23E+01 SK= 0.78E+00
     17 T=   180. E= -.13727935E+04 F= -.13753424E+04 E0= -.13753424E+04  EK= 0.44432E+01 SP= -.29E+01 SK= 0.10E+01
     18 T=   184. E= -.13727922E+04 F= -.13750599E+04 E0= -.13750599E+04  EK= 0.45517E+01 SP= -.35E+01 SK= 0.13E+01
     19 T=   193. E= -.13727906E+04 F= -.13748163E+04 E0= -.13748163E+04  EK= 0.47568E+01 SP= -.43E+01 SK= 0.15E+01
 bond charge predicted
       N       E                     dE             d eps       ncg     rms          rms(c)
DAV:   1    -0.137231376326E+04    0.37002E+01   -0.62624E+02  1536   0.322E+01
DAV:   2    -0.137460175983E+04   -0.22880E+01   -0.22880E+01  2560   0.922E+00
DAV:   3    -0.137476072709E+04   -0.15897E+00   -0.15897E+00  2816   0.115E+00
DAV:   4    -0.137476722683E+04   -0.64997E-02   -0.64997E-02  2304   0.294E-01    0.284E+00
DAV:   5    -0.137463644901E+04    0.13078E+00   -0.21620E-01  2432   0.700E-01    0.173E+00
DAV:   6    -0.137460804991E+04    0.28399E-01   -0.20785E-01  2176   0.616E-01    0.449E-01
DAV:   7    -0.137461066992E+04   -0.26200E-02   -0.42947E-02  2688   0.301E-01    0.232E-01
DAV:   8    -0.137461045208E+04    0.21784E-03   -0.50998E-03  2816   0.979E-02    0.112E-01
DAV:   9    -0.137461038888E+04    0.63203E-04   -0.90300E-04  2560   0.454E-02    0.518E-02
DAV:  10    -0.137461038746E+04    0.14162E-05   -0.21113E-04  2688   0.215E-02    0.209E-02
DAV:  11    -0.137461038852E+04   -0.10633E-05   -0.70946E-05  2176   0.112E-02
     20 T=   205. E= -.13727880E+04 F= -.13746104E+04 E0= -.13746104E+04  EK= 0.50685E+01 SP= -.50E+01 SK= 0.18E+01
     21 T=   223. E= -.13727893E+04 F= -.13744475E+04 E0= -.13744475E+04  EK= 0.54988E+01 SP= -.59E+01 SK= 0.20E+01
     22 T=   245. E= -.13727872E+04 F= -.13743179E+04 E0= -.13743179E+04  EK= 0.60581E+01 SP= -.68E+01 SK= 0.22E+01
     23 T=   273. E= -.13727855E+04 F= -.13742184E+04 E0= -.13742184E+04  EK= 0.67502E+01 SP= -.77E+01 SK= 0.24E+01
 bond charge predicted
       N       E                     dE             d eps       ncg     rms          rms(c)
DAV:   1    -0.137225819393E+04    0.23522E+01   -0.51763E+02  1536   0.296E+01
DAV:   2    -0.137413936902E+04   -0.18812E+01   -0.18811E+01  2560   0.845E+00
DAV:   3    -0.137425539957E+04   -0.11603E+00   -0.11603E+00  2816   0.104E+00
DAV:   4    -0.137426256856E+04   -0.71690E-02   -0.71690E-02  2432   0.319E-01    0.260E+00
DAV:   5    -0.137414590639E+04    0.11666E+00   -0.21178E-01  2560   0.716E-01    0.159E+00
DAV:   6    -0.137411959256E+04    0.26314E-01   -0.18309E-01  2304   0.647E-01    0.457E-01
DAV:   7    -0.137412225426E+04   -0.26617E-02   -0.41496E-02  2560   0.277E-01    0.253E-01
DAV:   8    -0.137412194830E+04    0.30596E-03   -0.71246E-03  2304   0.111E-01    0.114E-01
DAV:   9    -0.137412182935E+04    0.11894E-03   -0.16507E-03  2816   0.656E-02    0.572E-02
DAV:  10    -0.137412183589E+04   -0.65355E-05   -0.27095E-04  2176   0.216E-02    0.267E-02
DAV:  11    -0.137412183686E+04   -0.96747E-06   -0.11140E-04  2816   0.146E-02    0.115E-02
DAV:  12    -0.137412183685E+04    0.71304E-08   -0.84552E-06  1152   0.572E-03
     24 T=   307. E= -.13727684E+04 F= -.13741218E+04 E0= -.13741218E+04  EK= 0.75700E+01 SP= -.86E+01 SK= 0.24E+01
     25 T=   345. E= -.13727794E+04 F= -.13740635E+04 E0= -.13740635E+04  EK= 0.85061E+01 SP= -.95E+01 SK= 0.23E+01
     26 T=   386. E= -.13727811E+04 F= -.13739953E+04 E0= -.13739953E+04  EK= 0.95324E+01 SP= -.10E+02 SK= 0.21E+01
     27 T=   429. E= -.13727848E+04 F= -.13739119E+04 E0= -.13739119E+04  EK= 0.10599E+02 SP= -.11E+02 SK= 0.18E+01
     28 T=   471. E= -.13727903E+04 F= -.13737985E+04 E0= -.13737985E+04  EK= 0.11636E+02 SP= -.12E+02 SK= 0.14E+01
 bond charge predicted
       N       E                     dE             d eps       ncg     rms          rms(c)
DAV:   1    -0.136805991774E+04    0.60619E+01   -0.13432E+03  1536   0.478E+01
DAV:   2    -0.137361299657E+04   -0.55531E+01   -0.55529E+01  2688   0.136E+01
DAV:   3    -0.137400727727E+04   -0.39428E+00   -0.39428E+00  2944   0.165E+00
DAV:   4    -0.137402281272E+04   -0.15535E-01   -0.15535E-01  2304   0.400E-01    0.452E+00
DAV:   5    -0.137367821772E+04    0.34460E+00   -0.69878E-01  2560   0.133E+00    0.279E+00
DAV:   6    -0.137360556751E+04    0.72650E-01   -0.51758E-01  2432   0.114E+00    0.862E-01
DAV:   7    -0.137361347557E+04   -0.79081E-02   -0.12893E-01  2688   0.469E-01    0.441E-01
DAV:   8    -0.137361224026E+04    0.12353E-02   -0.22898E-02  2560   0.199E-01    0.194E-01
DAV:   9    -0.137361180835E+04    0.43191E-03   -0.49024E-03  2816   0.107E-01    0.894E-02
DAV:  10    -0.137361184665E+04   -0.38298E-04   -0.88087E-04  2176   0.387E-02    0.430E-02
DAV:  11    -0.137361185050E+04   -0.38539E-05   -0.31871E-04  3072   0.262E-02    0.200E-02
DAV:  12    -0.137361185356E+04   -0.30604E-05   -0.39929E-05  2048   0.897E-03
     29 T=   509. E= -.13727692E+04 F= -.13736119E+04 E0= -.13736119E+04  EK= 0.12560E+02 SP= -.13E+02 SK= 0.10E+01
     30 T=   538. E= -.13727972E+04 F= -.13734170E+04 E0= -.13734170E+04  EK= 0.13278E+02 SP= -.13E+02 SK= 0.60E+00
     31 T=   555. E= -.13728021E+04 F= -.13731375E+04 E0= -.13731375E+04  EK= 0.13711E+02 SP= -.14E+02 SK= 0.27E+00
 bond charge predicted
       N       E                     dE             d eps       ncg     rms          rms(c)
DAV:   1    -0.137021780201E+04    0.33940E+01   -0.67085E+02  1536   0.337E+01
DAV:   2    -0.137278658932E+04   -0.25688E+01   -0.25687E+01  2560   0.966E+00
DAV:   3    -0.137297906563E+04   -0.19248E+00   -0.19248E+00  2816   0.123E+00
DAV:   4    -0.137298676150E+04   -0.76959E-02   -0.76959E-02  2560   0.315E-01    0.314E+00
DAV:   5    -0.137281115904E+04    0.17560E+00   -0.37011E-01  2432   0.971E-01    0.193E+00
DAV:   6    -0.137277629151E+04    0.34868E-01   -0.24057E-01  2304   0.744E-01    0.633E-01
DAV:   7    -0.137277971674E+04   -0.34252E-02   -0.61625E-02  2688   0.328E-01    0.301E-01
DAV:   8    -0.137277915624E+04    0.56050E-03   -0.10210E-02  2560   0.137E-01    0.134E-01
DAV:   9    -0.137277897797E+04    0.17826E-03   -0.19441E-03  2688   0.701E-02    0.600E-02
DAV:  10    -0.137277900514E+04   -0.27163E-04   -0.52135E-04  2304   0.294E-02    0.272E-02
DAV:  11    -0.137277900618E+04   -0.10463E-05   -0.13108E-04  3072   0.180E-02    0.146E-02
DAV:  12    -0.137277900843E+04   -0.22410E-05   -0.19325E-05  1792   0.603E-03
     32 T=   559. E= -.13727866E+04 F= -.13727790E+04 E0= -.13727790E+04  EK= 0.13809E+02 SP= -.14E+02 SK= 0.67E-01
     33 T=   549. E= -.13728085E+04 F= -.13724057E+04 E0= -.13724057E+04  EK= 0.13558E+02 SP= -.14E+02 SK= 0.33E-05
     34 T=   526. E= -.13728043E+04 F= -.13719655E+04 E0= -.13719655E+04  EK= 0.12988E+02 SP= -.14E+02 SK= 0.60E-01
 bond charge predicted
       N       E                     dE             d eps       ncg     rms          rms(c)
DAV:   1    -0.136893444075E+04    0.38446E+01   -0.65325E+02  1536   0.332E+01
DAV:   2    -0.137152590931E+04   -0.25915E+01   -0.25914E+01  2688   0.959E+00
DAV:   3    -0.137166669818E+04   -0.14079E+00   -0.14079E+00  2688   0.105E+00
DAV:   4    -0.137167333558E+04   -0.66374E-02   -0.66374E-02  2560   0.336E-01    0.292E+00
DAV:   5    -0.137150459995E+04    0.16874E+00   -0.35541E-01  2560   0.923E-01    0.176E+00
DAV:   6    -0.137147278705E+04    0.31813E-01   -0.20646E-01  2304   0.657E-01    0.617E-01
DAV:   7    -0.137147537080E+04   -0.25838E-02   -0.52131E-02  2560   0.304E-01    0.280E-01
DAV:   8    -0.137147483909E+04    0.53171E-03   -0.82522E-03  2560   0.135E-01    0.127E-01
DAV:   9    -0.137147478575E+04    0.53349E-04   -0.19438E-03  2688   0.711E-02    0.622E-02
DAV:  10    -0.137147478797E+04   -0.22218E-05   -0.54088E-04  2304   0.309E-02    0.226E-02
DAV:  11    -0.137147479161E+04   -0.36419E-05   -0.90821E-05  2432   0.157E-02
     35 T=   493. E= -.13727749E+04 F= -.13714748E+04 E0= -.13714748E+04  EK= 0.12164E+02 SP= -.14E+02 SK= 0.21E+00
     36 T=   453. E= -.13727881E+04 F= -.13710205E+04 E0= -.13710205E+04  EK= 0.11174E+02 SP= -.13E+02 SK= 0.40E+00
     37 T=   410. E= -.13727835E+04 F= -.13705643E+04 E0= -.13705643E+04  EK= 0.10112E+02 SP= -.13E+02 SK= 0.59E+00
     38 T=   367. E= -.13727807E+04 F= -.13701448E+04 E0= -.13701448E+04  EK= 0.90602E+01 SP= -.12E+02 SK= 0.73E+00
 bond charge predicted
       N       E                     dE             d eps       ncg     rms          rms(c)
DAV:   1    -0.136631132911E+04    0.51635E+01   -0.84837E+02  1536   0.380E+01
DAV:   2    -0.136977315175E+04   -0.34618E+01   -0.34617E+01  2688   0.110E+01
DAV:   3    -0.136996695920E+04   -0.19381E+00   -0.19381E+00  2560   0.124E+00
DAV:   4    -0.136999206997E+04   -0.25111E-01   -0.25111E-01  2688   0.562E-01    0.309E+00
DAV:   5    -0.136978248671E+04    0.20958E+00   -0.46504E-01  2688   0.104E+00    0.182E+00
DAV:   6    -0.136974337020E+04    0.39117E-01   -0.22777E-01  2432   0.657E-01    0.646E-01
DAV:   7    -0.136974592106E+04   -0.25509E-02   -0.53166E-02  2688   0.308E-01    0.297E-01
DAV:   8    -0.136974555488E+04    0.36618E-03   -0.79502E-03  2688   0.128E-01    0.141E-01
DAV:   9    -0.136974551186E+04    0.43017E-04   -0.17691E-03  2688   0.645E-02    0.653E-02
DAV:  10    -0.136974551776E+04   -0.58999E-05   -0.52265E-04  2304   0.305E-02    0.219E-02
DAV:  11    -0.136974552313E+04   -0.53704E-05   -0.83388E-05  2560   0.148E-02
     39 T=   327. E= -.13727506E+04 F= -.13697455E+04 E0= -.13697455E+04  EK= 0.80759E+01 SP= -.12E+02 SK= 0.82E+00
     40 T=   292. E= -.13727603E+04 F= -.13694474E+04 E0= -.13694474E+04  EK= 0.72028E+01 SP= -.11E+02 SK= 0.83E+00
     41 T=   262. E= -.13727614E+04 F= -.13692136E+04 E0= -.13692136E+04  EK= 0.64668E+01 SP= -.11E+02 SK= 0.79E+00
     42 T=   238. E= -.13727630E+04 F= -.13690557E+04 E0= -.13690557E+04  EK= 0.58741E+01 SP= -.10E+02 SK= 0.70E+00
     43 T=   220. E= -.13727647E+04 F= -.13689731E+04 E0= -.13689731E+04  EK= 0.54218E+01 SP= -.98E+01 SK= 0.58E+00
 bond charge predicted
       N       E                     dE             d eps       ncg     rms          rms(c)
DAV:   1    -0.136584103956E+04    0.39045E+01   -0.78633E+02  1536   0.367E+01
DAV:   2    -0.136892078118E+04   -0.30797E+01   -0.30797E+01  2560   0.108E+01
DAV:   3    -0.136914865240E+04   -0.22787E+00   -0.22787E+00  2688   0.135E+00
DAV:   4    -0.136916024742E+04   -0.11595E-01   -0.11595E-01  2560   0.424E-01    0.318E+00
DAV:   5    -0.136896347252E+04    0.19677E+00   -0.39361E-01  2560   0.101E+00    0.192E+00
DAV:   6    -0.136892486768E+04    0.38605E-01   -0.25821E-01  2304   0.727E-01    0.582E-01
DAV:   7    -0.136892804210E+04   -0.31744E-02   -0.52697E-02  2560   0.331E-01    0.282E-01
DAV:   8    -0.136892793060E+04    0.11150E-03   -0.69834E-03  2816   0.125E-01    0.132E-01
DAV:   9    -0.136892783252E+04    0.98083E-04   -0.15722E-03  2688   0.592E-02    0.655E-02
DAV:  10    -0.136892784280E+04   -0.10278E-04   -0.39303E-04  2560   0.267E-02    0.217E-02
DAV:  11    -0.136892784646E+04   -0.36656E-05   -0.86238E-05  2432   0.144E-02
     44 T=   206. E= -.13727360E+04 F= -.13689278E+04 E0= -.13689278E+04  EK= 0.50968E+01 SP= -.94E+01 SK= 0.46E+00
     45 T=   198. E= -.13727161E+04 F= -.13689552E+04 E0= -.13689552E+04  EK= 0.48893E+01 SP= -.90E+01 SK= 0.33E+00
     46 T=   194. E= -.13727173E+04 F= -.13690633E+04 E0= -.13690633E+04  EK= 0.47896E+01 SP= -.87E+01 SK= 0.22E+00
     47 T=   194. E= -.13727181E+04 F= -.13692207E+04 E0= -.13692207E+04  EK= 0.47829E+01 SP= -.84E+01 SK= 0.13E+00
     48 T=   197. E= -.13727188E+04 F= -.13694174E+04 E0= -.13694174E+04  EK= 0.48566E+01 SP= -.82E+01 SK= 0.67E-01
     49 T=   202. E= -.13727193E+04 F= -.13696435E+04 E0= -.13696435E+04  EK= 0.49986E+01 SP= -.81E+01 SK= 0.25E-01
     50 T=   211. E= -.13727196E+04 F= -.13698886E+04 E0= -.13698886E+04  EK= 0.51976E+01 SP= -.80E+01 SK= 0.40E-02
     51 T=   220. E= -.13727198E+04 F= -.13701429E+04 E0= -.13701429E+04  EK= 0.54429E+01 SP= -.80E+01 SK= 0.49E-03
     52 T=   232. E= -.13727199E+04 F= -.13703972E+04 E0= -.13703972E+04  EK= 0.57242E+01 SP= -.81E+01 SK= 0.93E-02
     53 T=   244. E= -.13727200E+04 F= -.13706429E+04 E0= -.13706429E+04  EK= 0.60311E+01 SP= -.81E+01 SK= 0.25E-01
 bond charge predicted
       N       E                     dE             d eps       ncg     rms          rms(c)
DAV:   1    -0.135760649608E+04    0.11321E+02   -0.29627E+03  1536   0.713E+01
DAV:   2    -0.137069987889E+04   -0.13093E+02   -0.13092E+02  2560   0.210E+01
DAV:   3    -0.137188487635E+04   -0.11850E+01   -0.11850E+01  2816   0.372E+00
DAV:   4    -0.137194088293E+04   -0.56007E-01   -0.56007E-01  2560   0.777E-01    0.737E+00
DAV:   5    -0.137101522497E+04    0.92566E+00   -0.17293E+00  2432   0.212E+00    0.465E+00
DAV:   6    -0.137081236461E+04    0.20286E+00   -0.14849E+00  2432   0.202E+00    0.134E+00
DAV:   7    -0.137083007027E+04   -0.17706E-01   -0.35453E-01  2432   0.801E-01    0.739E-01
DAV:   8    -0.137082893853E+04    0.11317E-02   -0.82886E-02  2688   0.377E-01    0.323E-01
DAV:   9    -0.137082782463E+04    0.11139E-02   -0.15091E-02  2432   0.183E-01    0.191E-01
DAV:  10    -0.137082787561E+04   -0.50983E-04   -0.35075E-03  2816   0.823E-02    0.966E-02
DAV:  11    -0.137082781095E+04    0.64658E-04   -0.12649E-03  2432   0.476E-02    0.405E-02
DAV:  12    -0.137082782016E+04   -0.92144E-05   -0.28515E-04  3072   0.264E-02    0.305E-02
DAV:  13    -0.137082781257E+04    0.75912E-05   -0.11449E-04  2304   0.153E-02    0.113E-02
DAV:  14    -0.137082781494E+04   -0.23710E-05   -0.43717E-05  2176   0.949E-03
     54 T=   257. E= -.13726828E+04 F= -.13708278E+04 E0= -.13708278E+04  EK= 0.63461E+01 SP= -.82E+01 SK= 0.43E-01
 bond charge predicted
       N       E                     dE             d eps       ncg     rms          rms(c)
DAV:   1    -0.137087025277E+04   -0.42440E-01   -0.46454E+01  1536   0.878E+00    0.112E+00
DAV:   2    -0.137102011652E+04   -0.14986E+00   -0.15699E+00  2560   0.263E+00    0.568E-01
DAV:   3    -0.137102012617E+04   -0.96469E-05   -0.71487E-02  2560   0.347E-01    0.348E-01
DAV:   4    -0.137101902468E+04    0.11015E-02   -0.15049E-02  2560   0.204E-01    0.126E-01
DAV:   5    -0.137101914403E+04   -0.11935E-03   -0.35538E-03  2688   0.867E-02    0.629E-02
DAV:   6    -0.137101916619E+04   -0.22166E-04   -0.65230E-04  3072   0.330E-02    0.368E-02
DAV:   7    -0.137101915443E+04    0.11766E-04   -0.95789E-05  2304   0.140E-02    0.159E-02
DAV:   8    -0.137101915179E+04    0.26371E-05   -0.17779E-05  1664   0.982E-03
     55 T=   270. E= -.13726830E+04 F= -.13710192E+04 E0= -.13710192E+04  EK= 0.66576E+01 SP= -.84E+01 SK= 0.60E-01
     56 T=   282. E= -.13726797E+04 F= -.13711797E+04 E0= -.13711797E+04  EK= 0.69645E+01 SP= -.85E+01 SK= 0.72E-01
     57 T=   294. E= -.13726799E+04 F= -.13713126E+04 E0= -.13713126E+04  EK= 0.72568E+01 SP= -.87E+01 SK= 0.79E-01
     58 T=   305. E= -.13726801E+04 F= -.13714093E+04 E0= -.13714093E+04  EK= 0.75228E+01 SP= -.89E+01 SK= 0.79E-01
     59 T=   314. E= -.13726803E+04 F= -.13714691E+04 E0= -.13714691E+04  EK= 0.77545E+01 SP= -.90E+01 SK= 0.73E-01
     60 T=   322. E= -.13726804E+04 F= -.13714926E+04 E0= -.13714926E+04  EK= 0.79455E+01 SP= -.92E+01 SK= 0.63E-01
     61 T=   328. E= -.13726805E+04 F= -.13714820E+04 E0= -.13714820E+04  EK= 0.80915E+01 SP= -.93E+01 SK= 0.51E-01
     62 T=   332. E= -.13726804E+04 F= -.13714411E+04 E0= -.13714411E+04  EK= 0.81908E+01 SP= -.95E+01 SK= 0.38E-01
     63 T=   334. E= -.13726802E+04 F= -.13713745E+04 E0= -.13713745E+04  EK= 0.82441E+01 SP= -.96E+01 SK= 0.26E-01
     64 T=   334. E= -.13726800E+04 F= -.13712880E+04 E0= -.13712880E+04  EK= 0.82548E+01 SP= -.97E+01 SK= 0.16E-01
 bond charge predicted
       N       E                     dE             d eps       ncg     rms          rms(c)
DAV:   1    -0.134412169757E+04    0.26897E+02   -0.51781E+03  1536   0.929E+01
DAV:   2    -0.136974864752E+04   -0.25627E+02   -0.25624E+02  2688   0.275E+01
DAV:   3    -0.137267849519E+04   -0.29298E+01   -0.29298E+01  2944   0.390E+00
DAV:   4    -0.137284160285E+04   -0.16311E+00   -0.16311E+00  2688   0.112E+00    0.801E+00
DAV:   5    -0.137135664718E+04    0.14850E+01   -0.28464E+00  2560   0.278E+00    0.464E+00
DAV:   6    -0.137104965071E+04    0.30700E+00   -0.21511E+00  2560   0.220E+00    0.167E+00
DAV:   7    -0.137107341537E+04   -0.23765E-01   -0.54308E-01  2688   0.981E-01    0.829E-01
DAV:   8    -0.137106853631E+04    0.48791E-02   -0.87170E-02  2560   0.436E-01    0.392E-01
DAV:   9    -0.137106693655E+04    0.15998E-02   -0.20049E-02  2816   0.226E-01    0.153E-01
DAV:  10    -0.137106711154E+04   -0.17498E-03   -0.60655E-03  2432   0.103E-01    0.865E-02
DAV:  11    -0.137106712235E+04   -0.10811E-04   -0.14314E-03  2816   0.588E-02    0.529E-02
DAV:  12    -0.137106713669E+04   -0.14335E-04   -0.32068E-04  2304   0.223E-02    0.235E-02
DAV:  13    -0.137106714277E+04   -0.60818E-05   -0.63115E-05  2688   0.150E-02
     65 T=   333. E= -.13725689E+04 F= -.13710671E+04 E0= -.13710671E+04  EK= 0.82183E+01 SP= -.97E+01 SK= 0.83E-02
     66 T=   330. E= -.13726982E+04 F= -.13710802E+04 E0= -.13710802E+04  EK= 0.81525E+01 SP= -.98E+01 SK= 0.35E-02
     67 T=   327. E= -.13726978E+04 F= -.13709712E+04 E0= -.13709712E+04  EK= 0.80733E+01 SP= -.98E+01 SK= 0.88E-03
 bond charge predicted
       N       E                     dE             d eps       ncg     rms          rms(c)
DAV:   1    -0.136885085884E+04    0.22163E+01   -0.52482E+02  1536   0.291E+01
DAV:   2    -0.137072199686E+04   -0.18711E+01   -0.18711E+01  2560   0.863E+00
DAV:   3    -0.137084314682E+04   -0.12115E+00   -0.12115E+00  2944   0.998E-01
DAV:   4    -0.137084790166E+04   -0.47548E-02   -0.47548E-02  2048   0.225E-01    0.238E+00
DAV:   5    -0.137071741820E+04    0.13048E+00   -0.23077E-01  2432   0.776E-01    0.138E+00
DAV:   6    -0.137069051611E+04    0.26902E-01   -0.18450E-01  2432   0.586E-01    0.448E-01
DAV:   7    -0.137069244724E+04   -0.19311E-02   -0.36820E-02  2560   0.260E-01    0.228E-01
DAV:   8    -0.137069231030E+04    0.13695E-03   -0.61595E-03  2688   0.116E-01    0.104E-01
DAV:   9    -0.137069220995E+04    0.10035E-03   -0.13108E-03  2560   0.569E-02    0.440E-02
DAV:  10    -0.137069223446E+04   -0.24511E-04   -0.39993E-04  2432   0.251E-02    0.207E-02
DAV:  11    -0.137069223340E+04    0.10597E-05   -0.66438E-05  2304   0.132E-02
     68 T=   323. E= -.13725323E+04 F= -.13706922E+04 E0= -.13706922E+04  EK= 0.79708E+01 SP= -.98E+01 SK= 0.15E-04
     69 T=   318. E= -.13726175E+04 F= -.13706688E+04 E0= -.13706688E+04  EK= 0.78579E+01 SP= -.98E+01 SK= 0.29E-03
     70 T=   314. E= -.13726173E+04 F= -.13705777E+04 E0= -.13705777E+04  EK= 0.77508E+01 SP= -.98E+01 SK= 0.11E-02
     71 T=   310. E= -.13726172E+04 F= -.13705048E+04 E0= -.13705048E+04  EK= 0.76529E+01 SP= -.98E+01 SK= 0.21E-02
     72 T=   307. E= -.13726171E+04 F= -.13704516E+04 E0= -.13704516E+04  EK= 0.75685E+01 SP= -.97E+01 SK= 0.30E-02
     73 T=   304. E= -.13726171E+04 F= -.13704187E+04 E0= -.13704187E+04  EK= 0.75002E+01 SP= -.97E+01 SK= 0.36E-02
     74 T=   302. E= -.13726172E+04 F= -.13704056E+04 E0= -.13704056E+04  EK= 0.74493E+01 SP= -.97E+01 SK= 0.40E-02
     75 T=   300. E= -.13726173E+04 F= -.13704111E+04 E0= -.13704111E+04  EK= 0.74160E+01 SP= -.96E+01 SK= 0.42E-02
     76 T=   300. E= -.13726174E+04 F= -.13704334E+04 E0= -.13704334E+04  EK= 0.73991E+01 SP= -.96E+01 SK= 0.42E-02
     77 T=   300. E= -.13726176E+04 F= -.13704703E+04 E0= -.13704703E+04  EK= 0.73968E+01 SP= -.95E+01 SK= 0.42E-02
 bond charge predicted
       N       E                     dE             d eps       ncg     rms          rms(c)
DAV:   1    -0.134593788032E+04    0.24754E+02   -0.48290E+03  1536   0.892E+01
DAV:   2    -0.136909252686E+04   -0.23155E+02   -0.23152E+02  2688   0.262E+01
DAV:   3    -0.137172513415E+04   -0.26326E+01   -0.26326E+01  2944   0.368E+00
DAV:   4    -0.137186927782E+04   -0.14414E+00   -0.14414E+00  2560   0.979E-01    0.833E+00
DAV:   5    -0.137055914214E+04    0.13101E+01   -0.24756E+00  2432   0.246E+00    0.512E+00
DAV:   6    -0.137029654222E+04    0.26260E+00   -0.20053E+00  2304   0.206E+00    0.156E+00
DAV:   7    -0.137032121157E+04   -0.24669E-01   -0.43117E-01  2560   0.916E-01    0.801E-01
DAV:   8    -0.137031916824E+04    0.20433E-02   -0.81278E-02  2688   0.402E-01    0.361E-01
DAV:   9    -0.137031746877E+04    0.16995E-02   -0.18640E-02  2304   0.203E-01    0.174E-01
DAV:  10    -0.137031766432E+04   -0.19555E-03   -0.35721E-03  2560   0.799E-02    0.797E-02
DAV:  11    -0.137031765305E+04    0.11272E-04   -0.10545E-03  2688   0.449E-02    0.348E-02
DAV:  12    -0.137031766869E+04   -0.15646E-04   -0.17630E-04  2432   0.190E-02    0.193E-02
DAV:  13    -0.137031766791E+04    0.78396E-06   -0.46045E-05  2048   0.114E-02
     78 T=   300. E= -.13724269E+04 F= -.13703177E+04 E0= -.13703177E+04  EK= 0.73956E+01 SP= -.95E+01 SK= 0.42E-02
     79 T=   300. E= -.13726391E+04 F= -.13705774E+04 E0= -.13705774E+04  EK= 0.74041E+01 SP= -.95E+01 SK= 0.42E-02
     80 T=   301. E= -.13726392E+04 F= -.13706423E+04 E0= -.13706423E+04  EK= 0.74295E+01 SP= -.94E+01 SK= 0.43E-02
     81 T=   302. E= -.13726393E+04 F= -.13707114E+04 E0= -.13707114E+04  EK= 0.74582E+01 SP= -.94E+01 SK= 0.45E-02
     82 T=   303. E= -.13726395E+04 F= -.13707821E+04 E0= -.13707821E+04  EK= 0.74869E+01 SP= -.93E+01 SK= 0.49E-02
     83 T=   304. E= -.13726396E+04 F= -.13708523E+04 E0= -.13708523E+04  EK= 0.75126E+01 SP= -.93E+01 SK= 0.55E-02
     84 T=   305. E= -.13726396E+04 F= -.13709200E+04 E0= -.13709200E+04  EK= 0.75329E+01 SP= -.93E+01 SK= 0.63E-02
     85 T=   306. E= -.13726396E+04 F= -.13709838E+04 E0= -.13709838E+04  EK= 0.75458E+01 SP= -.92E+01 SK= 0.73E-02
     86 T=   306. E= -.13726396E+04 F= -.13710427E+04 E0= -.13710427E+04  EK= 0.75501E+01 SP= -.92E+01 SK= 0.84E-02
     87 T=   306. E= -.13726396E+04 F= -.13710964E+04 E0= -.13710964E+04  EK= 0.75454E+01 SP= -.91E+01 SK= 0.96E-02
 bond charge predicted
       N       E                     dE             d eps       ncg     rms          rms(c)
DAV:   1    -0.134614989012E+04    0.24168E+02   -0.48311E+03  1536   0.901E+01
DAV:   2    -0.136942116639E+04   -0.23271E+02   -0.23269E+02  2688   0.257E+01
DAV:   3    -0.137216755146E+04   -0.27464E+01   -0.27464E+01  2944   0.382E+00
DAV:   4    -0.137231475444E+04   -0.14720E+00   -0.14720E+00  2432   0.102E+00    0.819E+00
DAV:   5    -0.137098396663E+04    0.13308E+01   -0.25751E+00  2432   0.264E+00    0.496E+00
DAV:   6    -0.137069649200E+04    0.28747E+00   -0.20082E+00  2304   0.230E+00    0.159E+00
DAV:   7    -0.137072571725E+04   -0.29225E-01   -0.53771E-01  2944   0.983E-01    0.851E-01
DAV:   8    -0.137072093839E+04    0.47789E-02   -0.71990E-02  2304   0.352E-01    0.371E-01
DAV:   9    -0.137071967344E+04    0.12650E-02   -0.16896E-02  2944   0.210E-01    0.166E-01
DAV:  10    -0.137071971423E+04   -0.40794E-04   -0.33692E-03  2176   0.827E-02    0.741E-02
DAV:  11    -0.137071976245E+04   -0.48224E-04   -0.11717E-03  3072   0.507E-02    0.451E-02
DAV:  12    -0.137071977125E+04   -0.87970E-05   -0.20567E-04  2432   0.183E-02    0.199E-02
DAV:  13    -0.137071976790E+04    0.33520E-05   -0.35495E-05  2048   0.133E-02
     88 T=   305. E= -.13722244E+04 F= -.13707198E+04 E0= -.13707198E+04  EK= 0.75218E+01 SP= -.90E+01 SK= 0.11E-01
     89 T=   303. E= -.13723104E+04 F= -.13708353E+04 E0= -.13708353E+04  EK= 0.74864E+01 SP= -.90E+01 SK= 0.12E-01
     90 T=   302. E= -.13723103E+04 F= -.13708680E+04 E0= -.13708680E+04  EK= 0.74524E+01 SP= -.89E+01 SK= 0.12E-01
     91 T=   301. E= -.13723102E+04 F= -.13709034E+04 E0= -.13709034E+04  EK= 0.74201E+01 SP= -.88E+01 SK= 0.13E-01
     92 T=   299. E= -.13723101E+04 F= -.13709429E+04 E0= -.13709429E+04  EK= 0.73915E+01 SP= -.88E+01 SK= 0.13E-01
     93 T=   298. E= -.13723100E+04 F= -.13709876E+04 E0= -.13709876E+04  EK= 0.73685E+01 SP= -.87E+01 SK= 0.13E-01
     94 T=   298. E= -.13723099E+04 F= -.13710382E+04 E0= -.13710382E+04  EK= 0.73523E+01 SP= -.86E+01 SK= 0.12E-01
     95 T=   297. E= -.13723099E+04 F= -.13710952E+04 E0= -.13710952E+04  EK= 0.73436E+01 SP= -.86E+01 SK= 0.12E-01
     96 T=   297. E= -.13723099E+04 F= -.13711585E+04 E0= -.13711585E+04  EK= 0.73426E+01 SP= -.85E+01 SK= 0.11E-01
     97 T=   298. E= -.13723100E+04 F= -.13712275E+04 E0= -.13712275E+04  EK= 0.73486E+01 SP= -.84E+01 SK= 0.11E-01
 bond charge predicted
       N       E                     dE             d eps       ncg     rms          rms(c)
DAV:   1    -0.134697045600E+04    0.23749E+02   -0.46278E+03  1536   0.882E+01
DAV:   2    -0.136948604292E+04   -0.22516E+02   -0.22513E+02  2688   0.251E+01
DAV:   3    -0.137234563176E+04   -0.28596E+01   -0.28596E+01  3072   0.373E+00
DAV:   4    -0.137249243081E+04   -0.14680E+00   -0.14680E+00  2432   0.984E-01    0.755E+00
DAV:   5    -0.137137906377E+04    0.11134E+01   -0.22701E+00  2560   0.238E+00    0.440E+00
DAV:   6    -0.137115129811E+04    0.22777E+00   -0.14994E+00  2560   0.184E+00    0.145E+00
DAV:   7    -0.137117224745E+04   -0.20949E-01   -0.34393E-01  2560   0.763E-01    0.731E-01
DAV:   8    -0.137116958723E+04    0.26602E-02   -0.55628E-02  2432   0.338E-01    0.332E-01
DAV:   9    -0.137116871743E+04    0.86980E-03   -0.13241E-02  2688   0.182E-01    0.130E-01
DAV:  10    -0.137116886653E+04   -0.14910E-03   -0.28133E-03  2304   0.724E-02    0.569E-02
DAV:  11    -0.137116890578E+04   -0.39247E-04   -0.70026E-04  2816   0.405E-02    0.363E-02
DAV:  12    -0.137116891722E+04   -0.11438E-04   -0.13460E-04  2176   0.151E-02    0.168E-02
DAV:  13    -0.137116891680E+04    0.41469E-06   -0.15338E-05  1536   0.972E-03
     98 T=   298. E= -.13721792E+04 F= -.13711689E+04 E0= -.13711689E+04  EK= 0.73589E+01 SP= -.84E+01 SK= 0.10E-01
     99 T=   299. E= -.13723120E+04 F= -.13713773E+04 E0= -.13713773E+04  EK= 0.73735E+01 SP= -.83E+01 SK= 0.10E-01
    100 T=   299. E= -.13723121E+04 F= -.13714546E+04 E0= -.13714546E+04  EK= 0.73901E+01 SP= -.83E+01 SK= 0.10E-01
    101 T=   300. E= -.13723122E+04 F= -.13715308E+04 E0= -.13715308E+04  EK= 0.74057E+01 SP= -.82E+01 SK= 0.10E-01
    102 T=   300. E= -.13723123E+04 F= -.13716038E+04 E0= -.13716038E+04  EK= 0.74179E+01 SP= -.81E+01 SK= 0.10E-01
    103 T=   301. E= -.13723124E+04 F= -.13716718E+04 E0= -.13716718E+04  EK= 0.74245E+01 SP= -.81E+01 SK= 0.10E-01
    104 T=   301. E= -.13723124E+04 F= -.13717335E+04 E0= -.13717335E+04  EK= 0.74240E+01 SP= -.80E+01 SK= 0.11E-01
    105 T=   300. E= -.13723124E+04 F= -.13717878E+04 E0= -.13717878E+04  EK= 0.74158E+01 SP= -.80E+01 SK= 0.11E-01
    106 T=   300. E= -.13723123E+04 F= -.13718347E+04 E0= -.13718347E+04  EK= 0.73997E+01 SP= -.79E+01 SK= 0.11E-01
    107 T=   299. E= -.13723122E+04 F= -.13718744E+04 E0= -.13718744E+04  EK= 0.73767E+01 SP= -.78E+01 SK= 0.11E-01
 bond charge predicted
       N       E                     dE             d eps       ncg     rms          rms(c)
DAV:   1    -0.134790053964E+04    0.23268E+02   -0.45950E+03  1536   0.881E+01
DAV:   2    -0.137023640757E+04   -0.22336E+02   -0.22333E+02  2688   0.251E+01
DAV:   3    -0.137297773698E+04   -0.27413E+01   -0.27413E+01  2816   0.370E+00
DAV:   4    -0.137313111527E+04   -0.15338E+00   -0.15338E+00  2560   0.109E+00    0.752E+00
DAV:   5    -0.137202389955E+04    0.11072E+01   -0.22085E+00  2432   0.233E+00    0.447E+00
DAV:   6    -0.137179926310E+04    0.22464E+00   -0.15514E+00  2432   0.188E+00    0.146E+00
DAV:   7    -0.137182278021E+04   -0.23517E-01   -0.36019E-01  2816   0.782E-01    0.772E-01
DAV:   8    -0.137181930565E+04    0.34746E-02   -0.57997E-02  2176   0.334E-01    0.341E-01
DAV:   9    -0.137181834992E+04    0.95573E-03   -0.13760E-02  2688   0.197E-01    0.136E-01
DAV:  10    -0.137181856599E+04   -0.21607E-03   -0.33766E-03  2432   0.736E-02    0.617E-02
DAV:  11    -0.137181858535E+04   -0.19361E-04   -0.66746E-04  2944   0.402E-02    0.351E-02
DAV:  12    -0.137181859941E+04   -0.14063E-04   -0.12201E-04  2304   0.140E-02    0.170E-02
DAV:  13    -0.137181859797E+04    0.14406E-05   -0.17236E-05  1536   0.952E-03
    108 T=   298. E= -.13722182E+04 F= -.13718186E+04 E0= -.13718186E+04  EK= 0.73528E+01 SP= -.78E+01 SK= 0.10E-01
    109 T=   297. E= -.13723024E+04 F= -.13719361E+04 E0= -.13719361E+04  EK= 0.73253E+01 SP= -.77E+01 SK= 0.10E-01
    110 T=   295. E= -.13723022E+04 F= -.13719615E+04 E0= -.13719615E+04  EK= 0.72921E+01 SP= -.76E+01 SK= 0.93E-02
    111 T=   294. E= -.13723020E+04 F= -.13719865E+04 E0= -.13719865E+04  EK= 0.72614E+01 SP= -.76E+01 SK= 0.84E-02
    112 T=   293. E= -.13723019E+04 F= -.13720133E+04 E0= -.13720133E+04  EK= 0.72360E+01 SP= -.75E+01 SK= 0.73E-02
    113 T=   292. E= -.13723018E+04 F= -.13720442E+04 E0= -.13720442E+04  EK= 0.72187E+01 SP= -.75E+01 SK= 0.61E-02
    114 T=   292. E= -.13723017E+04 F= -.13720808E+04 E0= -.13720808E+04  EK= 0.72115E+01 SP= -.74E+01 SK= 0.50E-02
    115 T=   292. E= -.13723016E+04 F= -.13721244E+04 E0= -.13721244E+04  EK= 0.72156E+01 SP= -.74E+01 SK= 0.40E-02
    116 T=   293. E= -.13723016E+04 F= -.13721755E+04 E0= -.13721755E+04  EK= 0.72316E+01 SP= -.74E+01 SK= 0.31E-02
    117 T=   294. E= -.13723016E+04 F= -.13722341E+04 E0= -.13722341E+04  EK= 0.72590E+01 SP= -.73E+01 SK= 0.25E-02
 bond charge predicted
       N       E                     dE             d eps       ncg     rms          rms(c)
DAV:   1    -0.134994485313E+04    0.21874E+02   -0.43744E+03  1536   0.861E+01
DAV:   2    -0.137095337508E+04   -0.21009E+02   -0.21006E+02  2688   0.249E+01
DAV:   3    -0.137345830581E+04   -0.25049E+01   -0.25049E+01  2944   0.359E+00
DAV:   4    -0.137358138612E+04   -0.12308E+00   -0.12308E+00  2304   0.972E-01    0.662E+00
DAV:   5    -0.137248896678E+04    0.10924E+01   -0.21947E+00  2688   0.258E+00    0.367E+00
DAV:   6    -0.137223518192E+04    0.25378E+00   -0.14529E+00  2304   0.192E+00    0.126E+00
DAV:   7    -0.137226115379E+04   -0.25972E-01   -0.43132E-01  2944   0.865E-01    0.738E-01
DAV:   8    -0.137225750351E+04    0.36503E-02   -0.50763E-02  2176   0.307E-01    0.348E-01
DAV:   9    -0.137225678013E+04    0.72338E-03   -0.13875E-02  3072   0.201E-01    0.123E-01
DAV:  10    -0.137225686374E+04   -0.83611E-04   -0.32671E-03  2304   0.882E-02    0.687E-02
DAV:  11    -0.137225691751E+04   -0.53771E-04   -0.90691E-04  3072   0.418E-02    0.458E-02
DAV:  12    -0.137225692303E+04   -0.55154E-05   -0.20919E-04  2304   0.178E-02    0.237E-02
DAV:  13    -0.137225692219E+04    0.83479E-06   -0.24144E-05  1920   0.132E-02
    118 T=   295. E= -.13722604E+04 F= -.13722569E+04 E0= -.13722569E+04  EK= 0.72950E+01 SP= -.73E+01 SK= 0.20E-02
    119 T=   297. E= -.13723035E+04 F= -.13723691E+04 E0= -.13723691E+04  EK= 0.73385E+01 SP= -.73E+01 SK= 0.17E-02
    120 T=   299. E= -.13723036E+04 F= -.13724426E+04 E0= -.13724426E+04  EK= 0.73875E+01 SP= -.73E+01 SK= 0.16E-02
    121 T=   301. E= -.13723038E+04 F= -.13725177E+04 E0= -.13725177E+04  EK= 0.74382E+01 SP= -.72E+01 SK= 0.16E-02
    122 T=   303. E= -.13723039E+04 F= -.13725922E+04 E0= -.13725922E+04  EK= 0.74873E+01 SP= -.72E+01 SK= 0.18E-02
    123 T=   305. E= -.13723040E+04 F= -.13726641E+04 E0= -.13726641E+04  EK= 0.75313E+01 SP= -.72E+01 SK= 0.23E-02
    124 T=   307. E= -.13723041E+04 F= -.13727315E+04 E0= -.13727315E+04  EK= 0.75673E+01 SP= -.71E+01 SK= 0.29E-02
    125 T=   308. E= -.13723041E+04 F= -.13727931E+04 E0= -.13727931E+04  EK= 0.75932E+01 SP= -.71E+01 SK= 0.38E-02
    126 T=   308. E= -.13723041E+04 F= -.13728480E+04 E0= -.13728480E+04  EK= 0.76074E+01 SP= -.71E+01 SK= 0.49E-02
    127 T=   308. E= -.13723040E+04 F= -.13728959E+04 E0= -.13728959E+04  EK= 0.76094E+01 SP= -.70E+01 SK= 0.61E-02
 bond charge predicted
       N       E                     dE             d eps       ncg     rms          rms(c)
DAV:   1    -0.134948216197E+04    0.22775E+02   -0.44850E+03  1536   0.874E+01
DAV:   2    -0.137146821324E+04   -0.21986E+02   -0.21984E+02  2688   0.252E+01
DAV:   3    -0.137411090080E+04   -0.26427E+01   -0.26427E+01  2944   0.375E+00
DAV:   4    -0.137425715738E+04   -0.14626E+00   -0.14626E+00  2560   0.102E+00    0.766E+00
DAV:   5    -0.137307160274E+04    0.11856E+01   -0.23885E+00  2432   0.249E+00    0.451E+00
DAV:   6    -0.137283256797E+04    0.23903E+00   -0.17431E+00  2432   0.201E+00    0.156E+00
DAV:   7    -0.137285437499E+04   -0.21807E-01   -0.42555E-01  2816   0.866E-01    0.765E-01
DAV:   8    -0.137285041844E+04    0.39566E-02   -0.67168E-02  2304   0.384E-01    0.337E-01
DAV:   9    -0.137284953826E+04    0.88017E-03   -0.16503E-02  2560   0.225E-01    0.154E-01
DAV:  10    -0.137284969376E+04   -0.15550E-03   -0.52190E-03  2560   0.954E-02    0.758E-02
DAV:  11    -0.137284968738E+04    0.63862E-05   -0.94093E-04  2816   0.477E-02    0.460E-02
DAV:  12    -0.137284969629E+04   -0.89167E-05   -0.23731E-04  2176   0.200E-02    0.203E-02
DAV:  13    -0.137284969994E+04   -0.36412E-05   -0.54337E-05  2560   0.128E-02
    128 T=   308. E= -.13722186E+04 F= -.13728497E+04 E0= -.13728497E+04  EK= 0.75972E+01 SP= -.70E+01 SK= 0.75E-02
    129 T=   307. E= -.13723076E+04 F= -.13729734E+04 E0= -.13729734E+04  EK= 0.75756E+01 SP= -.69E+01 SK= 0.89E-02
    130 T=   306. E= -.13723075E+04 F= -.13730047E+04 E0= -.13730047E+04  EK= 0.75464E+01 SP= -.69E+01 SK= 0.10E-01
    131 T=   304. E= -.13723074E+04 F= -.13730322E+04 E0= -.13730322E+04  EK= 0.75100E+01 SP= -.68E+01 SK= 0.11E-01
    132 T=   303. E= -.13723073E+04 F= -.13730570E+04 E0= -.13730570E+04  EK= 0.74686E+01 SP= -.67E+01 SK= 0.12E-01
    133 T=   301. E= -.13723072E+04 F= -.13730802E+04 E0= -.13730802E+04  EK= 0.74241E+01 SP= -.67E+01 SK= 0.13E-01
    134 T=   299. E= -.13723072E+04 F= -.13731027E+04 E0= -.13731027E+04  EK= 0.73786E+01 SP= -.66E+01 SK= 0.13E-01
    135 T=   297. E= -.13723071E+04 F= -.13731249E+04 E0= -.13731249E+04  EK= 0.73338E+01 SP= -.65E+01 SK= 0.12E-01
 bond charge predicted
       N       E                     dE             d eps       ncg     rms          rms(c)
DAV:   1    -0.135905098786E+04    0.13799E+02   -0.29324E+03  1536   0.702E+01
DAV:   2    -0.137256041315E+04   -0.13509E+02   -0.13509E+02  2688   0.203E+01
DAV:   3    -0.137388801010E+04   -0.13276E+01   -0.13276E+01  2816   0.275E+00
DAV:   4    -0.137395460847E+04   -0.66598E-01   -0.66598E-01  2688   0.783E-01    0.606E+00
DAV:   5    -0.137320819249E+04    0.74642E+00   -0.14916E+00  2432   0.193E+00    0.353E+00
DAV:   6    -0.137305949551E+04    0.14870E+00   -0.10256E+00  2560   0.148E+00    0.122E+00
DAV:   7    -0.137307056544E+04   -0.11070E-01   -0.21569E-01  2304   0.605E-01    0.590E-01
DAV:   8    -0.137306923633E+04    0.13291E-02   -0.43348E-02  2688   0.314E-01    0.266E-01
DAV:   9    -0.137306847590E+04    0.76044E-03   -0.89441E-03  2432   0.145E-01    0.112E-01
DAV:  10    -0.137306862031E+04   -0.14442E-03   -0.22347E-03  2688   0.609E-02    0.493E-02
DAV:  11    -0.137306862933E+04   -0.90179E-05   -0.32151E-04  2816   0.263E-02    0.276E-02
DAV:  12    -0.137306863882E+04   -0.94926E-05   -0.65453E-05  2432   0.110E-02
    136 T=   295. E= -.13722266E+04 F= -.13730686E+04 E0= -.13730686E+04  EK= 0.72929E+01 SP= -.65E+01 SK= 0.11E-01
    137 T=   294. E= -.13722499E+04 F= -.13731198E+04 E0= -.13731198E+04  EK= 0.72585E+01 SP= -.64E+01 SK= 0.10E-01
    138 T=   293. E= -.13722499E+04 F= -.13731490E+04 E0= -.13731490E+04  EK= 0.72291E+01 SP= -.63E+01 SK= 0.92E-02
    139 T=   292. E= -.13722500E+04 F= -.13731779E+04 E0= -.13731779E+04  EK= 0.72037E+01 SP= -.63E+01 SK= 0.78E-02
    140 T=   291. E= -.13722500E+04 F= -.13732057E+04 E0= -.13732057E+04  EK= 0.71819E+01 SP= -.62E+01 SK= 0.64E-02
    141 T=   290. E= -.13722500E+04 F= -.13732314E+04 E0= -.13732314E+04  EK= 0.71635E+01 SP= -.62E+01 SK= 0.50E-02
    142 T=   290. E= -.13722500E+04 F= -.13732546E+04 E0= -.13732546E+04  EK= 0.71483E+01 SP= -.61E+01 SK= 0.37E-02
    143 T=   289. E= -.13722500E+04 F= -.13732755E+04 E0= -.13732755E+04  EK= 0.71369E+01 SP= -.61E+01 SK= 0.25E-02
    144 T=   289. E= -.13722499E+04 F= -.13732945E+04 E0= -.13732945E+04  EK= 0.71297E+01 SP= -.61E+01 SK= 0.16E-02
 bond charge predicted
       N       E                     dE             d eps       ncg     rms          rms(c)
DAV:   1    -0.135685074283E+04    0.16218E+02   -0.34755E+03  1536   0.769E+01
DAV:   2    -0.137273313847E+04   -0.15882E+02   -0.15881E+02  2688   0.219E+01
DAV:   3    -0.137427465847E+04   -0.15415E+01   -0.15415E+01  3072   0.305E+00
DAV:   4    -0.137434647561E+04   -0.71817E-01   -0.71817E-01  2432   0.764E-01    0.610E+00
DAV:   5    -0.137345651217E+04    0.88996E+00   -0.18362E+00  2560   0.216E+00    0.344E+00
DAV:   6    -0.137326165867E+04    0.19485E+00   -0.10595E+00  2304   0.156E+00    0.124E+00
DAV:   7    -0.137327662433E+04   -0.14966E-01   -0.29963E-01  2688   0.723E-01    0.656E-01
DAV:   8    -0.137327399678E+04    0.26275E-02   -0.40286E-02  2432   0.296E-01    0.309E-01
DAV:   9    -0.137327352516E+04    0.47162E-03   -0.97741E-03  2944   0.156E-01    0.113E-01
DAV:  10    -0.137327359357E+04   -0.68417E-04   -0.25705E-03  2304   0.720E-02    0.550E-02
DAV:  11    -0.137327361742E+04   -0.23850E-04   -0.54227E-04  2816   0.370E-02    0.386E-02
DAV:  12    -0.137327362528E+04   -0.78576E-05   -0.17753E-04  2304   0.171E-02    0.175E-02
DAV:  13    -0.137327362579E+04   -0.50929E-06   -0.18308E-05  2048   0.106E-02
    145 T=   289. E= -.13722117E+04 F= -.13732736E+04 E0= -.13732736E+04  EK= 0.71274E+01 SP= -.61E+01 SK= 0.80E-03
    146 T=   289. E= -.13722158E+04 F= -.13732940E+04 E0= -.13732940E+04  EK= 0.71303E+01 SP= -.61E+01 SK= 0.30E-03
    147 T=   289. E= -.13722157E+04 F= -.13733110E+04 E0= -.13733110E+04  EK= 0.71405E+01 SP= -.60E+01 SK= 0.42E-04
    148 T=   290. E= -.13722157E+04 F= -.13733307E+04 E0= -.13733307E+04  EK= 0.71595E+01 SP= -.60E+01 SK= 0.14E-04
    149 T=   291. E= -.13722156E+04 F= -.13733541E+04 E0= -.13733541E+04  EK= 0.71878E+01 SP= -.60E+01 SK= 0.17E-03
    150 T=   293. E= -.13722156E+04 F= -.13733818E+04 E0= -.13733818E+04  EK= 0.72255E+01 SP= -.61E+01 SK= 0.44E-03
    151 T=   295. E= -.13722156E+04 F= -.13734141E+04 E0= -.13734141E+04  EK= 0.72720E+01 SP= -.61E+01 SK= 0.73E-03
    152 T=   297. E= -.13722157E+04 F= -.13734507E+04 E0= -.13734507E+04  EK= 0.73259E+01 SP= -.61E+01 SK= 0.97E-03
    153 T=   299. E= -.13722158E+04 F= -.13734907E+04 E0= -.13734907E+04  EK= 0.73852E+01 SP= -.61E+01 SK= 0.11E-02
    154 T=   302. E= -.13722159E+04 F= -.13735331E+04 E0= -.13735331E+04  EK= 0.74472E+01 SP= -.61E+01 SK= 0.10E-02
 bond charge predicted
       N       E                     dE             d eps       ncg     rms          rms(c)
DAV:   1    -0.135359492738E+04    0.19679E+02   -0.41497E+03  1536   0.841E+01
DAV:   2    -0.137279628663E+04   -0.19201E+02   -0.19200E+02  2688   0.239E+01
DAV:   3    -0.137476990297E+04   -0.19736E+01   -0.19736E+01  2944   0.346E+00
DAV:   4    -0.137487024014E+04   -0.10034E+00   -0.10034E+00  2560   0.974E-01    0.713E+00
DAV:   5    -0.137379848926E+04    0.10718E+01   -0.20550E+00  2432   0.225E+00    0.427E+00
DAV:   6    -0.137357211365E+04    0.22638E+00   -0.15667E+00  2304   0.190E+00    0.139E+00
DAV:   7    -0.137359394937E+04   -0.21836E-01   -0.36047E-01  2688   0.807E-01    0.741E-01
DAV:   8    -0.137359197260E+04    0.19768E-02   -0.59069E-02  2432   0.349E-01    0.320E-01
DAV:   9    -0.137359105674E+04    0.91586E-03   -0.12913E-02  2688   0.185E-01    0.155E-01
DAV:  10    -0.137359121131E+04   -0.15457E-03   -0.28061E-03  2432   0.688E-02    0.644E-02
DAV:  11    -0.137359121812E+04   -0.68110E-05   -0.73240E-04  2944   0.402E-02    0.338E-02
DAV:  12    -0.137359123084E+04   -0.12712E-04   -0.11523E-04  2432   0.142E-02    0.162E-02
DAV:  13    -0.137359123040E+04    0.43743E-06   -0.21822E-05  1664   0.979E-03
    155 T=   304. E= -.13722299E+04 F= -.13735912E+04 E0= -.13735912E+04  EK= 0.75100E+01 SP= -.61E+01 SK= 0.84E-03
    156 T=   307. E= -.13722139E+04 F= -.13736179E+04 E0= -.13736179E+04  EK= 0.75689E+01 SP= -.62E+01 SK= 0.54E-03
    157 T=   309. E= -.13722140E+04 F= -.13736570E+04 E0= -.13736570E+04  EK= 0.76197E+01 SP= -.62E+01 SK= 0.23E-03
    158 T=   310. E= -.13722141E+04 F= -.13736922E+04 E0= -.13736922E+04  EK= 0.76611E+01 SP= -.62E+01 SK= 0.26E-04
    159 T=   312. E= -.13722141E+04 F= -.13737224E+04 E0= -.13737224E+04  EK= 0.76909E+01 SP= -.62E+01 SK= 0.40E-04
    160 T=   312. E= -.13722141E+04 F= -.13737468E+04 E0= -.13737468E+04  EK= 0.77074E+01 SP= -.62E+01 SK= 0.35E-03
    161 T=   312. E= -.13722141E+04 F= -.13737654E+04 E0= -.13737654E+04  EK= 0.77102E+01 SP= -.62E+01 SK= 0.99E-03
    162 T=   312. E= -.13722140E+04 F= -.13737784E+04 E0= -.13737784E+04  EK= 0.76994E+01 SP= -.61E+01 SK= 0.20E-02
    163 T=   311. E= -.13722139E+04 F= -.13737864E+04 E0= -.13737864E+04  EK= 0.76760E+01 SP= -.61E+01 SK= 0.31E-02
    164 T=   310. E= -.13722138E+04 F= -.13737906E+04 E0= -.13737906E+04  EK= 0.76419E+01 SP= -.61E+01 SK= 0.45E-02
 bond charge predicted
       N       E                     dE             d eps       ncg     rms          rms(c)
DAV:   1    -0.135086128433E+04    0.22730E+02   -0.43885E+03  1536   0.866E+01
DAV:   2    -0.137247302250E+04   -0.21612E+02   -0.21610E+02  2688   0.248E+01
DAV:   3    -0.137494881814E+04   -0.24758E+01   -0.24758E+01  2944   0.362E+00
DAV:   4    -0.137508851517E+04   -0.13970E+00   -0.13970E+00  2560   0.998E-01    0.693E+00
DAV:   5    -0.137400765469E+04    0.10809E+01   -0.22027E+00  2432   0.240E+00    0.396E+00
DAV:   6    -0.137379338041E+04    0.21427E+00   -0.14157E+00  2432   0.180E+00    0.146E+00
DAV:   7    -0.137381047438E+04   -0.17094E-01   -0.34001E-01  2432   0.783E-01    0.742E-01
DAV:   8    -0.137380787723E+04    0.25972E-02   -0.67187E-02  2560   0.389E-01    0.342E-01
DAV:   9    -0.137380680352E+04    0.10737E-02   -0.13850E-02  2560   0.189E-01    0.129E-01
DAV:  10    -0.137380699596E+04   -0.19243E-03   -0.34524E-03  2560   0.789E-02    0.599E-02
DAV:  11    -0.137380700901E+04   -0.13059E-04   -0.54391E-04  3072   0.366E-02    0.350E-02
DAV:  12    -0.137380702295E+04   -0.13933E-04   -0.12868E-04  2176   0.144E-02    0.168E-02
DAV:  13    -0.137380702292E+04    0.26044E-07   -0.20392E-05  1920   0.975E-03
    165 T=   308. E= -.13722298E+04 F= -.13738070E+04 E0= -.13738070E+04  EK= 0.75978E+01 SP= -.60E+01 SK= 0.58E-02
    166 T=   306. E= -.13722160E+04 F= -.13737915E+04 E0= -.13737915E+04  EK= 0.75470E+01 SP= -.60E+01 SK= 0.69E-02
    167 T=   304. E= -.13722159E+04 F= -.13737909E+04 E0= -.13737909E+04  EK= 0.74939E+01 SP= -.59E+01 SK= 0.78E-02
    168 T=   301. E= -.13722158E+04 F= -.13737917E+04 E0= -.13737917E+04  EK= 0.74402E+01 SP= -.59E+01 SK= 0.83E-02
    169 T=   299. E= -.13722157E+04 F= -.13737947E+04 E0= -.13737947E+04  EK= 0.73880E+01 SP= -.58E+01 SK= 0.84E-02
    170 T=   297. E= -.13722157E+04 F= -.13738006E+04 E0= -.13738006E+04  EK= 0.73394E+01 SP= -.58E+01 SK= 0.81E-02
    171 T=   296. E= -.13722156E+04 F= -.13738097E+04 E0= -.13738097E+04  EK= 0.72956E+01 SP= -.57E+01 SK= 0.75E-02
    172 T=   294. E= -.13722156E+04 F= -.13738220E+04 E0= -.13738220E+04  EK= 0.72580E+01 SP= -.57E+01 SK= 0.67E-02
    173 T=   293. E= -.13722156E+04 F= -.13738375E+04 E0= -.13738375E+04  EK= 0.72271E+01 SP= -.56E+01 SK= 0.57E-02
    174 T=   292. E= -.13722156E+04 F= -.13738559E+04 E0= -.13738559E+04  EK= 0.72034E+01 SP= -.56E+01 SK= 0.46E-02
 bond charge predicted
       N       E                     dE             d eps       ncg     rms          rms(c)
DAV:   1    -0.135229707545E+04    0.21510E+02   -0.41160E+03  1536   0.835E+01
DAV:   2    -0.137254013113E+04   -0.20243E+02   -0.20241E+02  2688   0.239E+01
DAV:   3    -0.137492090505E+04   -0.23808E+01   -0.23808E+01  3072   0.345E+00
DAV:   4    -0.137504449624E+04   -0.12359E+00   -0.12359E+00  2432   0.907E-01    0.639E+00
DAV:   5    -0.137406461313E+04    0.97988E+00   -0.17884E+00  2560   0.220E+00    0.357E+00
DAV:   6    -0.137384956590E+04    0.21505E+00   -0.13525E+00  2560   0.176E+00    0.121E+00
DAV:   7    -0.137386717269E+04   -0.17607E-01   -0.30530E-01  2560   0.726E-01    0.676E-01
DAV:   8    -0.137386533474E+04    0.18380E-02   -0.50562E-02  2688   0.333E-01    0.324E-01
DAV:   9    -0.137386439114E+04    0.94360E-03   -0.12550E-02  2688   0.180E-01    0.108E-01
DAV:  10    -0.137386452486E+04   -0.13372E-03   -0.24222E-03  2560   0.675E-02    0.580E-02
DAV:  11    -0.137386453853E+04   -0.13678E-04   -0.51924E-04  2688   0.340E-02    0.329E-02
DAV:  12    -0.137386455006E+04   -0.11527E-04   -0.11796E-04  2432   0.150E-02    0.147E-02
DAV:  13    -0.137386454938E+04    0.67798E-06   -0.20134E-05  1792   0.895E-03
    175 T=   291. E= -.13722044E+04 F= -.13738645E+04 E0= -.13738645E+04  EK= 0.71860E+01 SP= -.55E+01 SK= 0.35E-02
    176 T=   291. E= -.13722174E+04 F= -.13738994E+04 E0= -.13738994E+04  EK= 0.71756E+01 SP= -.55E+01 SK= 0.25E-02
    177 T=   291. E= -.13722174E+04 F= -.13739239E+04 E0= -.13739239E+04  EK= 0.71734E+01 SP= -.55E+01 SK= 0.17E-02
    178 T=   291. E= -.13722174E+04 F= -.13739499E+04 E0= -.13739499E+04  EK= 0.71780E+01 SP= -.54E+01 SK= 0.10E-02
    179 T=   291. E= -.13722174E+04 F= -.13739772E+04 E0= -.13739772E+04  EK= 0.71892E+01 SP= -.54E+01 SK= 0.53E-03
    180 T=   292. E= -.13722174E+04 F= -.13740052E+04 E0= -.13740052E+04  EK= 0.72061E+01 SP= -.54E+01 SK= 0.22E-03
    181 T=   293. E= -.13722175E+04 F= -.13740336E+04 E0= -.13740336E+04  EK= 0.72280E+01 SP= -.54E+01 SK= 0.53E-04
    182 T=   294. E= -.13722175E+04 F= -.13740618E+04 E0= -.13740618E+04  EK= 0.72538E+01 SP= -.54E+01 SK= 0.60E-06
    183 T=   295. E= -.13722175E+04 F= -.13740892E+04 E0= -.13740892E+04  EK= 0.72823E+01 SP= -.54E+01 SK= 0.21E-04
    184 T=   296. E= -.13722175E+04 F= -.13741153E+04 E0= -.13741153E+04  EK= 0.73123E+01 SP= -.54E+01 SK= 0.77E-04
 bond charge predicted
       N       E                     dE             d eps       ncg     rms          rms(c)
DAV:   1    -0.135391021537E+04    0.19954E+02   -0.39892E+03  1536   0.825E+01
DAV:   2    -0.137249271556E+04   -0.18583E+02   -0.18581E+02  2560   0.240E+01
DAV:   3    -0.137517545875E+04   -0.26827E+01   -0.26827E+01  2816   0.374E+00
DAV:   4    -0.137530817651E+04   -0.13272E+00   -0.13272E+00  2432   0.104E+00    0.656E+00
DAV:   5    -0.137433247761E+04    0.97570E+00   -0.18743E+00  2432   0.227E+00    0.378E+00
DAV:   6    -0.137412151301E+04    0.21096E+00   -0.14642E+00  2560   0.176E+00    0.120E+00
DAV:   7    -0.137414115536E+04   -0.19642E-01   -0.32234E-01  2688   0.756E-01    0.675E-01
DAV:   8    -0.137413955972E+04    0.15956E-02   -0.50808E-02  2432   0.331E-01    0.308E-01
DAV:   9    -0.137413866145E+04    0.89827E-03   -0.12379E-02  2688   0.186E-01    0.127E-01
DAV:  10    -0.137413882719E+04   -0.16574E-03   -0.26852E-03  2304   0.662E-02    0.544E-02
DAV:  11    -0.137413884978E+04   -0.22584E-04   -0.61700E-04  3072   0.392E-02    0.326E-02
DAV:  12    -0.137413886070E+04   -0.10923E-04   -0.98799E-05  2176   0.132E-02    0.138E-02
DAV:  13    -0.137413886152E+04   -0.82503E-06   -0.18921E-05  1920   0.906E-03
    185 T=   297. E= -.13722161E+04 F= -.13741389E+04 E0= -.13741389E+04  EK= 0.73434E+01 SP= -.54E+01 SK= 0.14E-03
    186 T=   299. E= -.13722153E+04 F= -.13741599E+04 E0= -.13741599E+04  EK= 0.73728E+01 SP= -.54E+01 SK= 0.18E-03
    187 T=   300. E= -.13722153E+04 F= -.13741776E+04 E0= -.13741776E+04  EK= 0.73987E+01 SP= -.54E+01 SK= 0.19E-03
    188 T=   301. E= -.13722153E+04 F= -.13741923E+04 E0= -.13741923E+04  EK= 0.74216E+01 SP= -.54E+01 SK= 0.18E-03
    189 T=   301. E= -.13722153E+04 F= -.13742038E+04 E0= -.13742038E+04  EK= 0.74409E+01 SP= -.55E+01 SK= 0.14E-03
    190 T=   302. E= -.13722153E+04 F= -.13742126E+04 E0= -.13742126E+04  EK= 0.74564E+01 SP= -.55E+01 SK= 0.10E-03
    191 T=   302. E= -.13722152E+04 F= -.13742192E+04 E0= -.13742192E+04  EK= 0.74683E+01 SP= -.55E+01 SK= 0.54E-04
    192 T=   303. E= -.13722152E+04 F= -.13742241E+04 E0= -.13742241E+04  EK= 0.74769E+01 SP= -.55E+01 SK= 0.19E-04
    193 T=   303. E= -.13722151E+04 F= -.13742283E+04 E0= -.13742283E+04  EK= 0.74827E+01 SP= -.55E+01 SK= 0.11E-05
    194 T=   303. E= -.13722151E+04 F= -.13742324E+04 E0= -.13742324E+04  EK= 0.74865E+01 SP= -.55E+01 SK= 0.61E-05
    195 T=   303. E= -.13722150E+04 F= -.13742373E+04 E0= -.13742373E+04  EK= 0.74888E+01 SP= -.55E+01 SK= 0.37E-04
    196 T=   303. E= -.13722150E+04 F= -.13742435E+04 E0= -.13742435E+04  EK= 0.74901E+01 SP= -.55E+01 SK= 0.96E-04
    197 T=   303. E= -.13722150E+04 F= -.13742511E+04 E0= -.13742511E+04  EK= 0.74906E+01 SP= -.55E+01 SK= 0.18E-03
    198 T=   303. E= -.13722150E+04 F= -.13742599E+04 E0= -.13742599E+04  EK= 0.74900E+01 SP= -.54E+01 SK= 0.30E-03
    199 T=   303. E= -.13722151E+04 F= -.13742696E+04 E0= -.13742696E+04  EK= 0.74879E+01 SP= -.54E+01 SK= 0.44E-03
    200 T=   303. E= -.13722152E+04 F= -.13742790E+04 E0= -.13742790E+04  EK= 0.74834E+01 SP= -.54E+01 SK= 0.60E-03
    201 T=   303. E= -.13722153E+04 F= -.13742871E+04 E0= -.13742871E+04  EK= 0.74754E+01 SP= -.54E+01 SK= 0.77E-03
    202 T=   302. E= -.13722153E+04 F= -.13742924E+04 E0= -.13742924E+04  EK= 0.74628E+01 SP= -.54E+01 SK= 0.94E-03
    203 T=   302. E= -.13722154E+04 F= -.13742935E+04 E0= -.13742935E+04  EK= 0.74444E+01 SP= -.54E+01 SK= 0.11E-02
    204 T=   301. E= -.13722155E+04 F= -.13742890E+04 E0= -.13742890E+04  EK= 0.74194E+01 SP= -.53E+01 SK= 0.12E-02
    205 T=   299. E= -.13722155E+04 F= -.13742778E+04 E0= -.13742778E+04  EK= 0.73873E+01 SP= -.53E+01 SK= 0.12E-02
    206 T=   298. E= -.13722155E+04 F= -.13742593E+04 E0= -.13742593E+04  EK= 0.73484E+01 SP= -.53E+01 SK= 0.11E-02
    207 T=   296. E= -.13722155E+04 F= -.13742331E+04 E0= -.13742331E+04  EK= 0.73031E+01 SP= -.53E+01 SK= 0.92E-03
    208 T=   294. E= -.13722155E+04 F= -.13741994E+04 E0= -.13741994E+04  EK= 0.72528E+01 SP= -.53E+01 SK= 0.65E-03
    209 T=   292. E= -.13722154E+04 F= -.13741589E+04 E0= -.13741589E+04  EK= 0.71994E+01 SP= -.53E+01 SK= 0.34E-03
    210 T=   289. E= -.13722153E+04 F= -.13741126E+04 E0= -.13741126E+04  EK= 0.71452E+01 SP= -.52E+01 SK= 0.83E-04
    211 T=   287. E= -.13722152E+04 F= -.13740619E+04 E0= -.13740619E+04  EK= 0.70926E+01 SP= -.52E+01 SK= 0.56E-05
    212 T=   285. E= -.13722151E+04 F= -.13740082E+04 E0= -.13740082E+04  EK= 0.70443E+01 SP= -.53E+01 SK= 0.25E-03
    213 T=   284. E= -.13722151E+04 F= -.13739533E+04 E0= -.13739533E+04  EK= 0.70030E+01 SP= -.53E+01 SK= 0.98E-03
    214 T=   282. E= -.13722150E+04 F= -.13738984E+04 E0= -.13738984E+04  EK= 0.69709E+01 SP= -.53E+01 SK= 0.23E-02
    215 T=   282. E= -.13722150E+04 F= -.13738449E+04 E0= -.13738449E+04  EK= 0.69500E+01 SP= -.53E+01 SK= 0.44E-02
    216 T=   281. E= -.13722150E+04 F= -.13737938E+04 E0= -.13737938E+04  EK= 0.69418E+01 SP= -.54E+01 SK= 0.72E-02
    217 T=   281. E= -.13722149E+04 F= -.13737458E+04 E0= -.13737458E+04  EK= 0.69473E+01 SP= -.54E+01 SK= 0.11E-01
    218 T=   282. E= -.13722150E+04 F= -.13737013E+04 E0= -.13737013E+04  EK= 0.69668E+01 SP= -.55E+01 SK= 0.15E-01
 bond charge predicted
       N       E                     dE             d eps       ncg     rms          rms(c)
DAV:   1    -0.116883962523E+04    0.20530E+03   -0.26219E+04  1536   0.215E+02
DAV:   2    -0.135010653517E+04   -0.18127E+03   -0.18112E+03  2944   0.662E+01
DAV:   3    -0.137744966609E+04   -0.27343E+02   -0.27341E+02  3072   0.107E+01
DAV:   4    -0.138130738944E+04   -0.38577E+01   -0.38577E+01  2432   0.445E+00    0.162E+01
DAV:   5    -0.137482515057E+04    0.64822E+01   -0.21668E+01  2560   0.673E+00    0.848E+00
DAV:   6    -0.137362378753E+04    0.12014E+01   -0.90177E+00  2560   0.428E+00    0.360E+00
DAV:   7    -0.137369176034E+04   -0.67973E-01   -0.21980E+00  2688   0.203E+00    0.189E+00
DAV:   8    -0.137366482810E+04    0.26932E-01   -0.42795E-01  2816   0.959E-01    0.977E-01
DAV:   9    -0.137366301193E+04    0.18162E-02   -0.73530E-02  2432   0.411E-01    0.359E-01
DAV:  10    -0.137366266497E+04    0.34696E-03   -0.23448E-02  2688   0.212E-01    0.143E-01
DAV:  11    -0.137366296770E+04   -0.30273E-03   -0.35782E-03  2432   0.804E-02    0.956E-02
DAV:  12    -0.137366298869E+04   -0.20994E-04   -0.10208E-03  2816   0.492E-02    0.406E-02
DAV:  13    -0.137366302229E+04   -0.33596E-04   -0.22522E-04  2432   0.205E-02    0.222E-02
DAV:  14    -0.137366302457E+04   -0.22860E-05   -0.67637E-05  2432   0.120E-02
    219 T=   284. E= -.13722172E+04 F= -.13736630E+04 E0= -.13736630E+04  EK= 0.70006E+01 SP= -.56E+01 SK= 0.19E-01
    220 T=   285. E= -.13722155E+04 F= -.13736219E+04 E0= -.13736219E+04  EK= 0.70453E+01 SP= -.57E+01 SK= 0.24E-01
    221 T=   288. E= -.13722155E+04 F= -.13735833E+04 E0= -.13735833E+04  EK= 0.70997E+01 SP= -.58E+01 SK= 0.28E-01
    222 T=   290. E= -.13722156E+04 F= -.13735476E+04 E0= -.13735476E+04  EK= 0.71649E+01 SP= -.59E+01 SK= 0.32E-01
    223 T=   293. E= -.13722156E+04 F= -.13735149E+04 E0= -.13735149E+04  EK= 0.72397E+01 SP= -.60E+01 SK= 0.35E-01
    224 T=   297. E= -.13722156E+04 F= -.13734853E+04 E0= -.13734853E+04  EK= 0.73225E+01 SP= -.61E+01 SK= 0.37E-01
    225 T=   300. E= -.13722157E+04 F= -.13734587E+04 E0= -.13734587E+04  EK= 0.74117E+01 SP= -.62E+01 SK= 0.37E-01
    226 T=   304. E= -.13722158E+04 F= -.13734354E+04 E0= -.13734354E+04  EK= 0.75051E+01 SP= -.63E+01 SK= 0.36E-01
    227 T=   308. E= -.13722159E+04 F= -.13734151E+04 E0= -.13734151E+04  EK= 0.76005E+01 SP= -.64E+01 SK= 0.34E-01
    228 T=   312. E= -.13722160E+04 F= -.13733977E+04 E0= -.13733977E+04  EK= 0.76949E+01 SP= -.65E+01 SK= 0.30E-01
    229 T=   315. E= -.13722161E+04 F= -.13733827E+04 E0= -.13733827E+04  EK= 0.77854E+01 SP= -.66E+01 SK= 0.26E-01
    230 T=   319. E= -.13722163E+04 F= -.13733693E+04 E0= -.13733693E+04  EK= 0.78685E+01 SP= -.67E+01 SK= 0.20E-01
    231 T=   322. E= -.13722165E+04 F= -.13733567E+04 E0= -.13733567E+04  EK= 0.79410E+01 SP= -.68E+01 SK= 0.15E-01
    232 T=   324. E= -.13722166E+04 F= -.13733437E+04 E0= -.13733437E+04  EK= 0.79994E+01 SP= -.69E+01 SK= 0.96E-02
    233 T=   326. E= -.13722168E+04 F= -.13733292E+04 E0= -.13733292E+04  EK= 0.80407E+01 SP= -.69E+01 SK= 0.53E-02
    234 T=   327. E= -.13722169E+04 F= -.13733121E+04 E0= -.13733121E+04  EK= 0.80624E+01 SP= -.70E+01 SK= 0.21E-02
 bond charge predicted
       N       E                     dE             d eps       ncg     rms          rms(c)
DAV:   1    -0.130681253933E+04    0.66850E+02   -0.99415E+03  1536   0.131E+02
DAV:   2    -0.136172230840E+04   -0.54910E+02   -0.54901E+02  2560   0.367E+01
DAV:   3    -0.137483529935E+04   -0.13113E+02   -0.13113E+02  3072   0.734E+00
DAV:   4    -0.137581139486E+04   -0.97610E+00   -0.97609E+00  2176   0.215E+00    0.991E+00
DAV:   5    -0.137365481089E+04    0.21566E+01   -0.66549E+00  2432   0.416E+00    0.537E+00
DAV:   6    -0.137325198352E+04    0.40283E+00   -0.30069E+00  2432   0.269E+00    0.221E+00
DAV:   7    -0.137328722749E+04   -0.35244E-01   -0.84036E-01  2944   0.124E+00    0.109E+00
DAV:   8    -0.137327790880E+04    0.93187E-02   -0.15542E-01  2560   0.550E-01    0.554E-01
DAV:   9    -0.137327575530E+04    0.21535E-02   -0.28442E-02  2560   0.257E-01    0.213E-01
DAV:  10    -0.137327574943E+04    0.58727E-05   -0.97207E-03  2560   0.139E-01    0.106E-01
DAV:  11    -0.137327578189E+04   -0.32465E-04   -0.15141E-03  2944   0.597E-02    0.668E-02
DAV:  12    -0.137327578527E+04   -0.33756E-05   -0.51513E-04  2432   0.293E-02    0.274E-02
DAV:  13    -0.137327578862E+04   -0.33581E-05   -0.91304E-05  2688   0.158E-02
    235 T=   326. E= -.13722049E+04 F= -.13732758E+04 E0= -.13732758E+04  EK= 0.80591E+01 SP= -.70E+01 SK= 0.33E-03
    236 T=   325. E= -.13722241E+04 F= -.13732663E+04 E0= -.13732663E+04  EK= 0.80336E+01 SP= -.70E+01 SK= 0.69E-04
    237 T=   324. E= -.13722241E+04 F= -.13732367E+04 E0= -.13732367E+04  EK= 0.79904E+01 SP= -.70E+01 SK= 0.11E-02
    238 T=   321. E= -.13722240E+04 F= -.13732030E+04 E0= -.13732030E+04  EK= 0.79273E+01 SP= -.70E+01 SK= 0.32E-02
    239 T=   318. E= -.13722239E+04 F= -.13731654E+04 E0= -.13731654E+04  EK= 0.78469E+01 SP= -.69E+01 SK= 0.59E-02
    240 T=   314. E= -.13722238E+04 F= -.13731249E+04 E0= -.13731249E+04  EK= 0.77522E+01 SP= -.69E+01 SK= 0.87E-02
    241 T=   310. E= -.13722236E+04 F= -.13730823E+04 E0= -.13730823E+04  EK= 0.76472E+01 SP= -.68E+01 SK= 0.11E-01
    242 T=   305. E= -.13722235E+04 F= -.13730389E+04 E0= -.13730389E+04  EK= 0.75358E+01 SP= -.67E+01 SK= 0.13E-01
    243 T=   301. E= -.13722234E+04 F= -.13729961E+04 E0= -.13729961E+04  EK= 0.74226E+01 SP= -.67E+01 SK= 0.14E-01
    244 T=   296. E= -.13722232E+04 F= -.13729552E+04 E0= -.13729552E+04  EK= 0.73119E+01 SP= -.66E+01 SK= 0.13E-01
 bond charge predicted
       N       E                     dE             d eps       ncg     rms          rms(c)
DAV:   1    -0.134940293984E+04    0.23873E+02   -0.45798E+03  1536   0.879E+01
DAV:   2    -0.137145421018E+04   -0.22051E+02   -0.22049E+02  2688   0.251E+01
DAV:   3    -0.137408868855E+04   -0.26345E+01   -0.26345E+01  2944   0.375E+00
DAV:   4    -0.137423080965E+04   -0.14212E+00   -0.14212E+00  2560   0.107E+00    0.788E+00
DAV:   5    -0.137304998277E+04    0.11808E+01   -0.24263E+00  2432   0.243E+00    0.473E+00
DAV:   6    -0.137282440241E+04    0.22558E+00   -0.16805E+00  2432   0.187E+00    0.155E+00
DAV:   7    -0.137284461503E+04   -0.20213E-01   -0.35779E-01  2560   0.802E-01    0.739E-01
DAV:   8    -0.137284206388E+04    0.25511E-02   -0.58981E-02  2688   0.378E-01    0.328E-01
DAV:   9    -0.137284090416E+04    0.11597E-02   -0.12637E-02  2432   0.179E-01    0.144E-01
DAV:  10    -0.137284109582E+04   -0.19166E-03   -0.35804E-03  2560   0.789E-02    0.656E-02
DAV:  11    -0.137284107385E+04    0.21973E-04   -0.70154E-04  2688   0.406E-02    0.346E-02
DAV:  12    -0.137284108912E+04   -0.15278E-04   -0.20155E-04  2560   0.185E-02    0.213E-02
DAV:  13    -0.137284108582E+04    0.33019E-05   -0.30946E-05  1792   0.103E-02
    245 T=   292. E= -.13721483E+04 F= -.13728411E+04 E0= -.13728411E+04  EK= 0.72058E+01 SP= -.65E+01 SK= 0.12E-01
    246 T=   288. E= -.13722268E+04 F= -.13728858E+04 E0= -.13728858E+04  EK= 0.71106E+01 SP= -.65E+01 SK= 0.10E-01
    247 T=   285. E= -.13722267E+04 F= -.13728602E+04 E0= -.13728602E+04  EK= 0.70311E+01 SP= -.64E+01 SK= 0.75E-02
    248 T=   282. E= -.13722267E+04 F= -.13728422E+04 E0= -.13728422E+04  EK= 0.69684E+01 SP= -.64E+01 SK= 0.49E-02
    249 T=   280. E= -.13722267E+04 F= -.13728329E+04 E0= -.13728329E+04  EK= 0.69246E+01 SP= -.63E+01 SK= 0.27E-02
    250 T=   280. E= -.13722266E+04 F= -.13728328E+04 E0= -.13728328E+04  EK= 0.69011E+01 SP= -.63E+01 SK= 0.10E-02
    251 T=   279. E= -.13722267E+04 F= -.13728422E+04 E0= -.13728422E+04  EK= 0.68984E+01 SP= -.63E+01 SK= 0.12E-03
    252 T=   280. E= -.13722267E+04 F= -.13728607E+04 E0= -.13728607E+04  EK= 0.69164E+01 SP= -.63E+01 SK= 0.85E-04
    253 T=   282. E= -.13722268E+04 F= -.13728876E+04 E0= -.13728876E+04  EK= 0.69539E+01 SP= -.63E+01 SK= 0.80E-03
    254 T=   284. E= -.13722269E+04 F= -.13729219E+04 E0= -.13729219E+04  EK= 0.70090E+01 SP= -.63E+01 SK= 0.21E-02
 bond charge predicted
       N       E                     dE             d eps       ncg     rms          rms(c)
DAV:   1    -0.135067223665E+04    0.22169E+02   -0.42651E+03  1536   0.851E+01
DAV:   2    -0.137146363897E+04   -0.20791E+02   -0.20790E+02  2688   0.243E+01
DAV:   3    -0.137392387745E+04   -0.24602E+01   -0.24602E+01  2944   0.361E+00
DAV:   4    -0.137405339949E+04   -0.12952E+00   -0.12952E+00  2560   0.105E+00    0.688E+00
DAV:   5    -0.137306041414E+04    0.99299E+00   -0.22219E+00  2560   0.230E+00    0.391E+00
DAV:   6    -0.137287271704E+04    0.18770E+00   -0.11209E+00  2304   0.153E+00    0.151E+00
DAV:   7    -0.137288625671E+04   -0.13540E-01   -0.30798E-01  2560   0.773E-01    0.705E-01
DAV:   8    -0.137288281458E+04    0.34421E-02   -0.68083E-02  2560   0.388E-01    0.352E-01
DAV:   9    -0.137288239442E+04    0.42016E-03   -0.11655E-02  2560   0.163E-01    0.140E-01
DAV:  10    -0.137288243932E+04   -0.44898E-04   -0.33129E-03  2560   0.795E-02    0.532E-02
DAV:  11    -0.137288246754E+04   -0.28223E-04   -0.42926E-04  2560   0.339E-02    0.341E-02
DAV:  12    -0.137288247686E+04   -0.93160E-05   -0.13355E-04  2816   0.168E-02    0.131E-02
DAV:  13    -0.137288247912E+04   -0.22600E-05   -0.20123E-05  1792   0.756E-03
    255 T=   287. E= -.13721462E+04 F= -.13728825E+04 E0= -.13728825E+04  EK= 0.70806E+01 SP= -.63E+01 SK= 0.36E-02
    256 T=   290. E= -.13722242E+04 F= -.13730058E+04 E0= -.13730058E+04  EK= 0.71641E+01 SP= -.64E+01 SK= 0.51E-02
    257 T=   294. E= -.13722243E+04 F= -.13730520E+04 E0= -.13730520E+04  EK= 0.72544E+01 SP= -.64E+01 SK= 0.63E-02
    258 T=   298. E= -.13722244E+04 F= -.13730985E+04 E0= -.13730985E+04  EK= 0.73493E+01 SP= -.65E+01 SK= 0.69E-02
    259 T=   302. E= -.13722246E+04 F= -.13731440E+04 E0= -.13731440E+04  EK= 0.74447E+01 SP= -.65E+01 SK= 0.69E-02
    260 T=   305. E= -.13722247E+04 F= -.13731868E+04 E0= -.13731868E+04  EK= 0.75371E+01 SP= -.66E+01 SK= 0.63E-02
    261 T=   309. E= -.13722248E+04 F= -.13732258E+04 E0= -.13732258E+04  EK= 0.76228E+01 SP= -.66E+01 SK= 0.51E-02
    262 T=   312. E= -.13722248E+04 F= -.13732603E+04 E0= -.13732603E+04  EK= 0.76987E+01 SP= -.67E+01 SK= 0.37E-02
    263 T=   314. E= -.13722249E+04 F= -.13732894E+04 E0= -.13732894E+04  EK= 0.77618E+01 SP= -.67E+01 SK= 0.22E-02
    264 T=   316. E= -.13722250E+04 F= -.13733126E+04 E0= -.13733126E+04  EK= 0.78100E+01 SP= -.67E+01 SK= 0.97E-03
 bond charge predicted
       N       E                     dE             d eps       ncg     rms          rms(c)
DAV:   1    -0.134983812698E+04    0.23044E+02   -0.45432E+03  1536   0.876E+01
DAV:   2    -0.137194395672E+04   -0.22106E+02   -0.22104E+02  2688   0.251E+01
DAV:   3    -0.137452279023E+04   -0.25788E+01   -0.25788E+01  2944   0.367E+00
DAV:   4    -0.137466533548E+04   -0.14255E+00   -0.14255E+00  2432   0.995E-01    0.753E+00
DAV:   5    -0.137350184876E+04    0.11635E+01   -0.24274E+00  2432   0.243E+00    0.445E+00
DAV:   6    -0.137326463767E+04    0.23721E+00   -0.15548E+00  2304   0.186E+00    0.153E+00
DAV:   7    -0.137328292385E+04   -0.18286E-01   -0.37147E-01  2560   0.839E-01    0.753E-01
DAV:   8    -0.137328025422E+04    0.26696E-02   -0.65892E-02  2176   0.387E-01    0.328E-01
DAV:   9    -0.137327965799E+04    0.59623E-03   -0.16257E-02  2944   0.209E-01    0.156E-01
DAV:  10    -0.137327978789E+04   -0.12991E-03   -0.35965E-03  2176   0.785E-02    0.603E-02
DAV:  11    -0.137327982071E+04   -0.32811E-04   -0.85702E-04  2944   0.483E-02    0.394E-02
DAV:  12    -0.137327983061E+04   -0.99011E-05   -0.14571E-04  2048   0.151E-02    0.191E-02
DAV:  13    -0.137327983491E+04   -0.43072E-05   -0.27382E-05  1792   0.115E-02
    265 T=   318. E= -.13721741E+04 F= -.13732798E+04 E0= -.13732798E+04  EK= 0.78423E+01 SP= -.67E+01 SK= 0.18E-03
    266 T=   318. E= -.13722227E+04 F= -.13733393E+04 E0= -.13733393E+04  EK= 0.78560E+01 SP= -.67E+01 SK= 0.26E-04
    267 T=   318. E= -.13722227E+04 F= -.13733421E+04 E0= -.13733421E+04  EK= 0.78495E+01 SP= -.67E+01 SK= 0.57E-03
    268 T=   317. E= -.13722227E+04 F= -.13733377E+04 E0= -.13733377E+04  EK= 0.78240E+01 SP= -.67E+01 SK= 0.18E-02
    269 T=   315. E= -.13722226E+04 F= -.13733259E+04 E0= -.13733259E+04  EK= 0.77803E+01 SP= -.67E+01 SK= 0.34E-02
    270 T=   313. E= -.13722226E+04 F= -.13733068E+04 E0= -.13733068E+04  EK= 0.77195E+01 SP= -.66E+01 SK= 0.53E-02
    271 T=   310. E= -.13722225E+04 F= -.13732805E+04 E0= -.13732805E+04  EK= 0.76438E+01 SP= -.66E+01 SK= 0.72E-02
    272 T=   306. E= -.13722224E+04 F= -.13732476E+04 E0= -.13732476E+04  EK= 0.75558E+01 SP= -.65E+01 SK= 0.87E-02
    273 T=   302. E= -.13722222E+04 F= -.13732089E+04 E0= -.13732089E+04  EK= 0.74587E+01 SP= -.65E+01 SK= 0.95E-02
    274 T=   298. E= -.13722221E+04 F= -.13731657E+04 E0= -.13731657E+04  EK= 0.73564E+01 SP= -.64E+01 SK= 0.96E-02
 bond charge predicted
       N       E                     dE             d eps       ncg     rms          rms(c)
DAV:   1    -0.135001903929E+04    0.23261E+02   -0.45594E+03  1536   0.879E+01
DAV:   2    -0.137204801765E+04   -0.22029E+02   -0.22027E+02  2688   0.254E+01
DAV:   3    -0.137440455471E+04   -0.23565E+01   -0.23565E+01  2944   0.361E+00
DAV:   4    -0.137451505721E+04   -0.11050E+00   -0.11050E+00  2304   0.952E-01    0.749E+00
DAV:   5    -0.137328732811E+04    0.12277E+01   -0.25617E+00  2432   0.267E+00    0.438E+00
DAV:   6    -0.137304733364E+04    0.23999E+00   -0.16972E+00  2560   0.190E+00    0.154E+00
DAV:   7    -0.137306500542E+04   -0.17672E-01   -0.39167E-01  2560   0.824E-01    0.746E-01
DAV:   8    -0.137306171996E+04    0.32855E-02   -0.60773E-02  2304   0.389E-01    0.333E-01
DAV:   9    -0.137306100427E+04    0.71569E-03   -0.14298E-02  2816   0.195E-01    0.152E-01
DAV:  10    -0.137306112809E+04   -0.12382E-03   -0.39027E-03  2432   0.796E-02    0.583E-02
DAV:  11    -0.137306115760E+04   -0.29514E-04   -0.78120E-04  3072   0.443E-02    0.365E-02
[...]
Warning: ieee_underflow is signaling
Warning: ieee_inexact is signaling
FORTRAN STOP
Warning: ieee_invalid is signaling
Warning: ieee_divide_by_zero is signaling
Warning: ieee_underflow is signaling
Warning: ieee_inexact is signaling
FORTRAN STOP
Warning: ieee_invalid is signaling
Warning: ieee_divide_by_zero is signaling
Warning: ieee_underflow is signaling
Warning: ieee_inexact is signaling
FORTRAN STOP
Warning: ieee_invalid is signaling
Warning: ieee_divide_by_zero is signaling
Warning: ieee_underflow is signaling
Warning: ieee_inexact is signaling
FORTRAN STOP
Warning: ieee_invalid is signaling
Warning: ieee_divide_by_zero is signaling
Warning: ieee_underflow is signaling
Warning: ieee_inexact is signaling
FORTRAN STOP
Warning: ieee_invalid is signaling
Warning: ieee_divide_by_zero is signaling
Warning: ieee_underflow is signaling
Warning: ieee_inexact is signaling
FORTRAN STOP
Warning: ieee_invalid is signaling
Warning: ieee_divide_by_zero is signaling
Warning: ieee_underflow is signaling
Warning: ieee_inexact is signaling
FORTRAN STOP
Warning: ieee_invalid is signaling
Warning: ieee_divide_by_zero is signaling
Warning: ieee_underflow is signaling
Warning: ieee_inexact is signaling
FORTRAN STOP
Warning: ieee_invalid is signaling
Warning: ieee_divide_by_zero is signaling
Warning: ieee_underflow is signaling
Warning: ieee_inexact is signaling
FORTRAN STOP
Warning: ieee_invalid is signaling
Warning: ieee_divide_by_zero is signaling
Warning: ieee_underflow is signaling
Warning: ieee_inexact is signaling
FORTRAN STOP
Warning: ieee_invalid is signaling
Warning: ieee_divide_by_zero is signaling
Warning: ieee_underflow is signaling
Warning: ieee_inexact is signaling
FORTRAN STOP
Warning: ieee_invalid is signaling
Warning: ieee_divide_by_zero is signaling
Warning: ieee_underflow is signaling
Warning: ieee_inexact is signaling
FORTRAN STOP
Warning: ieee_invalid is signaling
Warning: ieee_divide_by_zero is signaling
Warning: ieee_underflow is signaling
Warning: ieee_inexact is signaling
FORTRAN STOP
Warning: ieee_invalid is signaling
Warning: ieee_divide_by_zero is signaling
Warning: ieee_underflow is signaling
Warning: ieee_inexact is signaling
FORTRAN STOP
Warning: ieee_invalid is signaling
Warning: ieee_divide_by_zero is signaling
Warning: ieee_underflow is signaling
Warning: ieee_inexact is signaling
FORTRAN STOP
Warning: ieee_invalid is signaling
Warning: ieee_divide_by_zero is signaling
Warning: ieee_underflow is signaling
Warning: ieee_inexact is signaling
FORTRAN STOP
Warning: ieee_invalid is signaling
Warning: ieee_divide_by_zero is signaling
Warning: ieee_underflow is signaling
Warning: ieee_inexact is signaling
FORTRAN STOP
Warning: ieee_invalid is signaling
Warning: ieee_divide_by_zero is signaling
Warning: ieee_underflow is signaling
Warning: ieee_inexact is signaling
FORTRAN STOP
Warning: ieee_invalid is signaling
Warning: ieee_divide_by_zero is signaling
Warning: ieee_underflow is signaling
Warning: ieee_inexact is signaling
FORTRAN STOP
   2975 T=   304. E= -.13720577E+04 F= -.13728918E+04 E0= -.13728918E+04  EK= 0.75067E+01 SP= -.67E+01 SK= 0.18E-02
   2976 T=   305. E= -.13720577E+04 F= -.13729026E+04 E0= -.13729026E+04  EK= 0.75422E+01 SP= -.67E+01 SK= 0.14E-02
   2977 T=   307. E= -.13720577E+04 F= -.13729223E+04 E0= -.13729223E+04  EK= 0.75830E+01 SP= -.67E+01 SK= 0.95E-03
   2978 T=   309. E= -.13720578E+04 F= -.13729510E+04 E0= -.13729510E+04  EK= 0.76280E+01 SP= -.67E+01 SK= 0.50E-03
   2979 T=   311. E= -.13720579E+04 F= -.13729879E+04 E0= -.13729879E+04  EK= 0.76755E+01 SP= -.67E+01 SK= 0.14E-03
   2980 T=   313. E= -.13720580E+04 F= -.13730315E+04 E0= -.13730315E+04  EK= 0.77226E+01 SP= -.67E+01 SK= 0.18E-06
   2981 T=   315. E= -.13720582E+04 F= -.13730799E+04 E0= -.13730799E+04  EK= 0.77660E+01 SP= -.67E+01 SK= 0.21E-03
   2982 T=   316. E= -.13720584E+04 F= -.13731303E+04 E0= -.13731303E+04  EK= 0.78019E+01 SP= -.67E+01 SK= 0.93E-03
   2983 T=   317. E= -.13720586E+04 F= -.13731801E+04 E0= -.13731801E+04  EK= 0.78266E+01 SP= -.67E+01 SK= 0.23E-02
   2984 T=   317. E= -.13720587E+04 F= -.13732263E+04 E0= -.13732263E+04  EK= 0.78363E+01 SP= -.67E+01 SK= 0.43E-02
   2985 T=   317. E= -.13720588E+04 F= -.13732662E+04 E0= -.13732662E+04  EK= 0.78284E+01 SP= -.66E+01 SK= 0.70E-02
   2986 T=   316. E= -.13720588E+04 F= -.13732976E+04 E0= -.13732976E+04  EK= 0.78011E+01 SP= -.66E+01 SK= 0.10E-01
   2987 T=   314. E= -.13720588E+04 F= -.13733193E+04 E0= -.13733193E+04  EK= 0.77538E+01 SP= -.65E+01 SK= 0.14E-01
   2988 T=   311. E= -.13720587E+04 F= -.13733303E+04 E0= -.13733303E+04  EK= 0.76873E+01 SP= -.64E+01 SK= 0.17E-01
   2989 T=   308. E= -.13720586E+04 F= -.13733309E+04 E0= -.13733309E+04  EK= 0.76038E+01 SP= -.64E+01 SK= 0.20E-01
   2990 T=   304. E= -.13720584E+04 F= -.13733220E+04 E0= -.13733220E+04  EK= 0.75066E+01 SP= -.63E+01 SK= 0.21E-01
   2991 T=   300. E= -.13720582E+04 F= -.13733050E+04 E0= -.13733050E+04  EK= 0.73998E+01 SP= -.62E+01 SK= 0.22E-01
   2992 T=   295. E= -.13720580E+04 F= -.13732817E+04 E0= -.13732817E+04  EK= 0.72881E+01 SP= -.61E+01 SK= 0.21E-01
   2993 T=   291. E= -.13720579E+04 F= -.13732542E+04 E0= -.13732542E+04  EK= 0.71761E+01 SP= -.60E+01 SK= 0.20E-01
   2994 T=   286. E= -.13720578E+04 F= -.13732245E+04 E0= -.13732245E+04  EK= 0.70686E+01 SP= -.59E+01 SK= 0.17E-01
   2995 T=   282. E= -.13720577E+04 F= -.13731946E+04 E0= -.13731946E+04  EK= 0.69696E+01 SP= -.58E+01 SK= 0.13E-01
   2996 T=   279. E= -.13720576E+04 F= -.13731661E+04 E0= -.13731661E+04  EK= 0.68827E+01 SP= -.58E+01 SK= 0.87E-02
   2997 T=   276. E= -.13720576E+04 F= -.13731402E+04 E0= -.13731402E+04  EK= 0.68109E+01 SP= -.57E+01 SK= 0.50E-02
   2998 T=   274. E= -.13720576E+04 F= -.13731176E+04 E0= -.13731176E+04  EK= 0.67561E+01 SP= -.57E+01 SK= 0.21E-02
   2999 T=   272. E= -.13720576E+04 F= -.13730990E+04 E0= -.13730990E+04  EK= 0.67198E+01 SP= -.57E+01 SK= 0.34E-03
   3000 T=   271. E= -.13720576E+04 F= -.13730844E+04 E0= -.13730844E+04  EK= 0.67028E+01 SP= -.57E+01 SK= 0.95E-04
 PROFILE, used timers:     446
Warning: ieee_invalid is signaling
Warning: ieee_divide_by_zero is signaling
Warning: ieee_underflow is signaling
Warning: ieee_inexact is signaling
FORTRAN STOP
Warning: ieee_invalid is signaling
Warning: ieee_divide_by_zero is signaling
Warning: ieee_underflow is signaling
Warning: ieee_inexact is signaling
FORTRAN STOP
Warning: ieee_invalid is signaling
Warning: ieee_divide_by_zero is signaling
Warning: ieee_underflow is signaling
Warning: ieee_inexact is signaling
FORTRAN STOP
Warning: ieee_invalid is signaling
Warning: ieee_divide_by_zero is signaling
Warning: ieee_underflow is signaling
Warning: ieee_inexact is signaling
FORTRAN STOP
Warning: ieee_invalid is signaling
Warning: ieee_divide_by_zero is signaling
Warning: ieee_underflow is signaling
Warning: ieee_inexact is signaling
FORTRAN STOP
Warning: ieee_invalid is signaling
Warning: ieee_divide_by_zero is signaling
Warning: ieee_underflow is signaling
Warning: ieee_inexact is signaling
FORTRAN STOP
Warning: ieee_invalid is signaling
Warning: ieee_divide_by_zero is signaling
Warning: ieee_underflow is signaling
Warning: ieee_inexact is signaling
FORTRAN STOP
Warning: ieee_invalid is signaling
Warning: ieee_divide_by_zero is signaling
Warning: ieee_underflow is signaling
Warning: ieee_inexact is signaling
FORTRAN STOP
Warning: ieee_invalid is signaling
Warning: ieee_divide_by_zero is signaling
Warning: ieee_underflow is signaling
Warning: ieee_inexact is signaling
FORTRAN STOP
Warning: ieee_invalid is signaling
Warning: ieee_divide_by_zero is signaling
Warning: ieee_underflow is signaling
Warning: ieee_inexact is signaling
FORTRAN STOP
Warning: ieee_invalid is signaling
Warning: ieee_divide_by_zero is signaling
Warning: ieee_underflow is signaling
Warning: ieee_inexact is signaling
FORTRAN STOP
Warning: ieee_invalid is signaling
Warning: ieee_divide_by_zero is signaling
Warning: ieee_underflow is signaling
Warning: ieee_inexact is signaling
FORTRAN STOP
Warning: ieee_invalid is signaling
Warning: ieee_divide_by_zero is signaling
Warning: ieee_underflow is signaling
Warning: ieee_inexact is signaling
FORTRAN STOP
Warning: ieee_invalid is signaling
Warning: ieee_divide_by_zero is signaling
Warning: ieee_underflow is signaling
Warning: ieee_inexact is signaling
FORTRAN STOP
Warning: ieee_invalid is signaling
Warning: ieee_divide_by_zero is signaling
Warning: ieee_underflow is signaling
Warning: ieee_inexact is signaling
FORTRAN STOP
Warning: ieee_invalid is signaling
Warning: ieee_divide_by_zero is signaling
Warning: ieee_underflow is signaling
Warning: ieee_inexact is signaling
FORTRAN STOP
Warning: ieee_invalid is signaling
Warning: ieee_divide_by_zero is signaling
Warning: ieee_underflow is signaling
Warning: ieee_inexact is signaling
FORTRAN STOP
Warning: ieee_invalid is signaling
Warning: ieee_divide_by_zero is signaling
Warning: ieee_underflow is signaling
Warning: ieee_inexact is signaling
FORTRAN STOP
Warning: ieee_invalid is signaling
Warning: ieee_divide_by_zero is signaling
Warning: ieee_underflow is signaling
Warning: ieee_inexact is signaling
FORTRAN STOP
Warning: ieee_invalid is signaling
Warning: ieee_divide_by_zero is signaling
Warning: ieee_underflow is signaling
Warning: ieee_inexact is signaling
FORTRAN STOP
Warning: ieee_invalid is signaling
Warning: ieee_divide_by_zero is signaling
Warning: ieee_underflow is signaling
Warning: ieee_inexact is signaling
FORTRAN STOP
Warning: ieee_invalid is signaling
Warning: ieee_divide_by_zero is signaling
Warning: ieee_underflow is signaling
Warning: ieee_inexact is signaling
FORTRAN STOP
Warning: ieee_invalid is signaling
Warning: ieee_divide_by_zero is signaling
Warning: ieee_underflow is signaling
Warning: ieee_inexact is signaling
FORTRAN STOP
Warning: ieee_invalid is signaling
Warning: ieee_divide_by_zero is signaling
Warning: ieee_underflow is signaling
Warning: ieee_inexact is signaling
FORTRAN STOP
Warning: ieee_invalid is signaling
Warning: ieee_divide_by_zero is signaling
Warning: ieee_underflow is signaling
Warning: ieee_inexact is signaling
FORTRAN STOP
Warning: ieee_invalid is signaling
Warning: ieee_divide_by_zero is signaling
Warning: ieee_underflow is signaling
Warning: ieee_inexact is signaling
FORTRAN STOP
Warning: ieee_invalid is signaling
Warning: ieee_divide_by_zero is signaling
Warning: ieee_underflow is signaling
Warning: ieee_inexact is signaling
FORTRAN STOP
Warning: ieee_invalid is signaling
Warning: ieee_divide_by_zero is signaling
Warning: ieee_underflow is signaling
Warning: ieee_inexact is signaling
FORTRAN STOP
Warning: ieee_invalid is signaling
Warning: ieee_divide_by_zero is signaling
Warning: ieee_underflow is signaling
Warning: ieee_inexact is signaling
FORTRAN STOP
Warning: ieee_invalid is signaling
Warning: ieee_divide_by_zero is signaling
Warning: ieee_underflow is signaling
Warning: ieee_inexact is signaling
FORTRAN STOP
Warning: ieee_invalid is signaling
Warning: ieee_divide_by_zero is signaling
Warning: ieee_underflow is signaling
Warning: ieee_inexact is signaling
FORTRAN STOP
Warning: ieee_invalid is signaling
Warning: ieee_divide_by_zero is signaling
Warning: ieee_underflow is signaling
Warning: ieee_inexact is signaling
FORTRAN STOP
Warning: ieee_invalid is signaling
Warning: ieee_divide_by_zero is signaling
Warning: ieee_underflow is signaling
Warning: ieee_inexact is signaling
FORTRAN STOP
Warning: ieee_invalid is signaling
Warning: ieee_divide_by_zero is signaling
Warning: ieee_underflow is signaling
Warning: ieee_inexact is signaling
FORTRAN STOP
Warning: ieee_invalid is signaling
Warning: ieee_divide_by_zero is signaling
Warning: ieee_underflow is signaling
Warning: ieee_inexact is signaling
FORTRAN STOP
Warning: ieee_invalid is signaling
Warning: ieee_divide_by_zero is signaling
Warning: ieee_underflow is signaling
Warning: ieee_inexact is signaling
FORTRAN STOP
Warning: ieee_invalid is signaling
Warning: ieee_divide_by_zero is signaling
Warning: ieee_underflow is signaling
Warning: ieee_inexact is signaling
FORTRAN STOP
Warning: ieee_invalid is signaling
Warning: ieee_divide_by_zero is signaling
Warning: ieee_underflow is signaling
Warning: ieee_inexact is signaling
FORTRAN STOP
Warning: ieee_invalid is signaling
Warning: ieee_divide_by_zero is signaling
Warning: ieee_underflow is signaling
Warning: ieee_inexact is signaling
FORTRAN STOP
Warning: ieee_invalid is signaling
Warning: ieee_divide_by_zero is signaling
Warning: ieee_underflow is signaling
Warning: ieee_inexact is signaling
FORTRAN STOP
Warning: ieee_invalid is signaling
Warning: ieee_divide_by_zero is signaling
Warning: ieee_underflow is signaling
Warning: ieee_inexact is signaling
FORTRAN STOP
Warning: ieee_invalid is signaling
Warning: ieee_divide_by_zero is signaling
Warning: ieee_underflow is signaling
Warning: ieee_inexact is signaling
FORTRAN STOP
Warning: ieee_invalid is signaling
Warning: ieee_divide_by_zero is signaling
Warning: ieee_underflow is signaling
Warning: ieee_inexact is signaling
FORTRAN STOP
Warning: ieee_invalid is signaling
Warning: ieee_divide_by_zero is signaling
Warning: ieee_underflow is signaling
Warning: ieee_inexact is signaling
FORTRAN STOP
Warning: ieee_invalid is signaling
Warning: ieee_divide_by_zero is signaling
Warning: ieee_underflow is signaling
Warning: ieee_inexact is signaling
FORTRAN STOP
Warning: ieee_invalid is signaling
Warning: ieee_divide_by_zero is signaling
Warning: ieee_underflow is signaling
Warning: ieee_inexact is signaling
FORTRAN STOP
Warning: ieee_invalid is signaling
Warning: ieee_divide_by_zero is signaling
Warning: ieee_underflow is signaling
Warning: ieee_inexact is signaling
FORTRAN STOP
Warning: ieee_invalid is signaling
Warning: ieee_divide_by_zero is signaling
Warning: ieee_underflow is signaling
Warning: ieee_inexact is signaling
FORTRAN STOP
Warning: ieee_invalid is signaling
Warning: ieee_divide_by_zero is signaling
Warning: ieee_underflow is signaling
Warning: ieee_inexact is signaling
FORTRAN STOP
Warning: ieee_invalid is signaling
Warning: ieee_divide_by_zero is signaling
Warning: ieee_underflow is signaling
Warning: ieee_inexact is signaling
FORTRAN STOP
Warning: ieee_invalid is signaling
Warning: ieee_divide_by_zero is signaling
Warning: ieee_underflow is signaling
Warning: ieee_inexact is signaling
FORTRAN STOP
Warning: ieee_invalid is signaling
Warning: ieee_divide_by_zero is signaling
Warning: ieee_underflow is signaling
Warning: ieee_inexact is signaling
FORTRAN STOP
Warning: ieee_invalid is signaling
Warning: ieee_divide_by_zero is signaling
Warning: ieee_underflow is signaling
Warning: ieee_inexact is signaling
FORTRAN STOP
Warning: ieee_invalid is signaling
Warning: ieee_divide_by_zero is signaling
Warning: ieee_underflow is signaling
Warning: ieee_inexact is signaling
FORTRAN STOP
Warning: ieee_invalid is signaling
Warning: ieee_divide_by_zero is signaling
Warning: ieee_underflow is signaling
Warning: ieee_inexact is signaling
FORTRAN STOP
Warning: ieee_invalid is signaling
Warning: ieee_divide_by_zero is signaling
Warning: ieee_underflow is signaling
Warning: ieee_inexact is signaling
FORTRAN STOP
Warning: ieee_invalid is signaling
Warning: ieee_divide_by_zero is signaling
Warning: ieee_underflow is signaling
Warning: ieee_inexact is signaling
FORTRAN STOP
Warning: ieee_invalid is signaling
Warning: ieee_divide_by_zero is signaling
Warning: ieee_underflow is signaling
Warning: ieee_inexact is signaling
FORTRAN STOP
Warning: ieee_invalid is signaling
Warning: ieee_divide_by_zero is signaling
Warning: ieee_underflow is signaling
Warning: ieee_inexact is signaling
FORTRAN STOP
Warning: ieee_invalid is signaling
Warning: ieee_divide_by_zero is signaling
Warning: ieee_underflow is signaling
Warning: ieee_inexact is signaling
FORTRAN STOP
Warning: ieee_invalid is signaling
Warning: ieee_divide_by_zero is signaling
Warning: ieee_underflow is signaling
Warning: ieee_inexact is signaling
FORTRAN STOP
Warning: ieee_invalid is signaling
Warning: ieee_divide_by_zero is signaling
Warning: ieee_underflow is signaling
Warning: ieee_inexact is signaling
FORTRAN STOP
Warning: ieee_invalid is signaling
Warning: ieee_divide_by_zero is signaling
Warning: ieee_underflow is signaling
Warning: ieee_inexact is signaling
FORTRAN STOP
Warning: ieee_invalid is signaling
Warning: ieee_divide_by_zero is signaling
Warning: ieee_underflow is signaling
Warning: ieee_inexact is signaling
FORTRAN STOP
Warning: ieee_invalid is signaling
Warning: ieee_divide_by_zero is signaling
Warning: ieee_underflow is signaling
Warning: ieee_inexact is signaling
FORTRAN STOP
Warning: ieee_invalid is signaling
Warning: ieee_divide_by_zero is signaling
Warning: ieee_underflow is signaling
Warning: ieee_inexact is signaling
FORTRAN STOP
Warning: ieee_invalid is signaling
Warning: ieee_divide_by_zero is signaling
Warning: ieee_underflow is signaling
Warning: ieee_inexact is signaling
FORTRAN STOP
Warning: ieee_invalid is signaling
Warning: ieee_divide_by_zero is signaling
Warning: ieee_underflow is signaling
Warning: ieee_inexact is signaling
FORTRAN STOP
Warning: ieee_invalid is signaling
Warning: ieee_divide_by_zero is signaling
Warning: ieee_underflow is signaling
Warning: ieee_inexact is signaling
FORTRAN STOP
Warning: ieee_invalid is signaling
Warning: ieee_divide_by_zero is signaling
Warning: ieee_underflow is signaling
Warning: ieee_inexact is signaling
FORTRAN STOP
Warning: ieee_invalid is signaling
Warning: ieee_divide_by_zero is signaling
Warning: ieee_underflow is signaling
Warning: ieee_inexact is signaling
FORTRAN STOP
Warning: ieee_invalid is signaling
Warning: ieee_divide_by_zero is signaling
Warning: ieee_underflow is signaling
Warning: ieee_inexact is signaling
FORTRAN STOP
Warning: ieee_invalid is signaling
Warning: ieee_divide_by_zero is signaling
Warning: ieee_underflow is signaling
Warning: ieee_inexact is signaling
FORTRAN STOP
Warning: ieee_invalid is signaling
Warning: ieee_divide_by_zero is signaling
Warning: ieee_underflow is signaling
Warning: ieee_inexact is signaling
FORTRAN STOP
Warning: ieee_invalid is signaling
Warning: ieee_divide_by_zero is signaling
Warning: ieee_underflow is signaling
Warning: ieee_inexact is signaling
FORTRAN STOP
Warning: ieee_invalid is signaling
Warning: ieee_divide_by_zero is signaling
Warning: ieee_underflow is signaling
Warning: ieee_inexact is signaling
FORTRAN STOP
Warning: ieee_invalid is signaling
Warning: ieee_divide_by_zero is signaling
Warning: ieee_underflow is signaling
Warning: ieee_inexact is signaling
FORTRAN STOP
Warning: ieee_invalid is signaling
Warning: ieee_divide_by_zero is signaling
Warning: ieee_underflow is signaling
Warning: ieee_inexact is signaling
FORTRAN STOP
Warning: ieee_invalid is signaling
Warning: ieee_divide_by_zero is signaling
Warning: ieee_underflow is signaling
Warning: ieee_inexact is signaling
FORTRAN STOP
Warning: ieee_invalid is signaling
Warning: ieee_divide_by_zero is signaling
Warning: ieee_underflow is signaling
Warning: ieee_inexact is signaling
FORTRAN STOP
Warning: ieee_invalid is signaling
Warning: ieee_divide_by_zero is signaling
Warning: ieee_underflow is signaling
Warning: ieee_inexact is signaling
FORTRAN STOP
Warning: ieee_invalid is signaling
Warning: ieee_divide_by_zero is signaling
Warning: ieee_underflow is signaling
Warning: ieee_inexact is signaling
FORTRAN STOP
Warning: ieee_invalid is signaling
Warning: ieee_divide_by_zero is signaling
Warning: ieee_underflow is signaling
Warning: ieee_inexact is signaling
FORTRAN STOP
Warning: ieee_invalid is signaling
Warning: ieee_divide_by_zero is signaling
Warning: ieee_underflow is signaling
Warning: ieee_inexact is signaling
FORTRAN STOP
Warning: ieee_invalid is signaling
Warning: ieee_divide_by_zero is signaling
Warning: ieee_underflow is signaling
Warning: ieee_inexact is signaling
FORTRAN STOP
Warning: ieee_invalid is signaling
Warning: ieee_divide_by_zero is signaling
Warning: ieee_underflow is signaling
Warning: ieee_inexact is signaling
FORTRAN STOP
