 vasp.6.4.0 14Feb23 (build Mar 16 2023 23:21:51) complex                         
 executed on    LinuxNV_CrayMPICH date 2023.07.27  08:36:19
 running  128 mpi-ranks, on    1 nodes
 distrk:  each k-point on  128 cores,    1 groups
 distr:  one band on NCORE=   1 cores,  128 groups
 OpenACC runtime initialized ...    0 GPUs detected


--------------------------------------------------------------------------------------------------------


 INCAR:
   SYSTEM = AIMD-MLFF-ON-THE-FLY
   ISTART = 0
   ICHARG = 2
   LWAVE = .FALSE.
   LCHARG = .FALSE.
   LVTOT = .FALSE.
   LVHAR = .FALSE.
   LELF = .FALSE.
   LREAL = Auto
   ENCUT = 400
   ISMEAR = 0
   SIGMA = 0.1
   EDIFF = 1E-5
   NELM = 40
   GGA = PE
   LREAL = Auto
   ISYM = 0
   ISIF = 2
   NSW = 3000
   POTIM = 1
   SMASS = 0
   MDALGO = 2
   TEBEG = 300
   ML_LMLFF = .TRUE.
   ML_ISTART = 0

 POTCAR:    PAW_PBE Zr_sv 04Jan2005               
 POTCAR:    PAW_PBE Li_sv 10Sep2004               
 POTCAR:    PAW_PBE La 06Sep2000                  
 POTCAR:    PAW_PBE O 08Apr2002                   
 -----------------------------------------------------------------------------
|                                                                             |
|           W    W    AA    RRRRR   N    N  II  N    N   GGGG   !!!           |
|           W    W   A  A   R    R  NN   N  II  NN   N  G    G  !!!           |
|           W    W  A    A  R    R  N N  N  II  N N  N  G       !!!           |
|           W WW W  AAAAAA  RRRRR   N  N N  II  N  N N  G  GGG   !            |
|           WW  WW  A    A  R   R   N   NN  II  N   NN  G    G                |
|           W    W  A    A  R    R  N    N  II  N    N   GGGG   !!!           |
|                                                                             |
|     For optimal performance we recommend to set                             |
|       NCORE = 2 up to number-of-cores-per-socket                            |
|     NCORE specifies how many cores store one orbital (NPAR=cpu/NCORE).      |
|     This setting can greatly improve the performance of VASP for DFT.       |
|     The default, NCORE=1 might be grossly inefficient on modern             |
|     multi-core architectures or massively parallel machines. Do your        |
|     own testing! More info at https://www.vasp.at/wiki/index.php/NCORE      |
|     Unfortunately you need to use the default for GW and RPA                |
|     calculations (for HF NCORE is supported but not extensively tested      |
|     yet).                                                                   |
|                                                                             |
 -----------------------------------------------------------------------------

 POTCAR:    PAW_PBE Zr_sv 04Jan2005               
   SHA256 =  25aed69cb10325f9d37c5c68912b61a17387d1f8e4f1d804860ffa10c8a4bf76 Zr_sv/POTCAR          
   COPYR  = (c) Copyright 04Jan2005 Georg Kresse                                                    
   COPYR  = This file is part of the software VASP. Any use, copying, and all other rights are regul
   COPYR  = If you do not have a valid VASP license, you may not use, copy or distribute this file. 
   VRHFIN =Zr: 4s4p5s4d                                                                             
   LEXCH  = PE                                                                                      
   EATOM  =  1284.2219 eV,   94.3876 Ry                                                             
                                                                                                    
   TITEL  = PAW_PBE Zr_sv 04Jan2005                                                                 
   LULTRA =        F    use ultrasoft PP ?                                                          
   IUNSCR =        1    unscreen: 0-lin 1-nonlin 2-no                                               
   RPACOR =    2.200    partial core radius                                                         
   POMASS =   91.224; ZVAL   =   12.000    mass and valenz                                          
   RCORE  =    2.500    outmost cutoff radius                                                       
   RWIGS  =    3.070; RWIGS  =    1.625    wigner-seitz radius (au A)                               
   ENMAX  =  229.898; ENMIN  =  172.424 eV                                                          
   ICORE  =        3    local potential                                                             
   LCOR   =        T    correct aug charges                                                         
   LPAW   =        T    paw PP                                                                      
   EAUG   =  461.257                                                                                
   DEXC   =    0.000                                                                                
   RMAX   =    2.561    core radius for proj-oper                                                   
   RAUG   =    1.300    factor for augmentation sphere                                              
   RDEP   =    2.597    radius for radial grids                                                     
   RDEPT  =    2.007    core radius for aug-charge                                                  
                                                                                                    
   Atomic configuration                                                                             
   11 entries                                                                                       
     n  l   j            E        occ.                                                              
     1  0  0.50    -17820.0161   2.0000                                                             
     2  0  0.50     -2467.0882   2.0000                                                             
     2  1  1.50     -2199.6095   6.0000                                                             
     3  0  0.50      -402.4863   2.0000                                                             
     3  1  1.50      -315.3675   6.0000                                                             
     3  2  2.50      -172.4472  10.0000                                                             
     4  0  0.50       -52.4146   2.0000                                                             
     5  0  0.50        -3.8421   1.0000                                                             
     4  1  1.50       -30.5054   6.0000                                                             
     4  2  2.50        -2.3341   3.0000                                                             
     4  3  2.50        -1.3606   0.0000                                                             
   Description                                                                                      
     l       E           TYP  RCUT    TYP  RCUT                                                     
     0    -52.4145962     23  2.200                                                                 
     0     -3.8421270     23  2.500                                                                 
     1    -30.5053914     23  2.200                                                                 
     1     20.4087390     23  2.200                                                                 
     2     -2.3340816     23  2.500                                                                 
     2     -0.6120942     23  2.500                                                                 
     3     -4.0817478     23  2.500                                                                 
  local pseudopotential read in
  partial core-charges read in
  partial kinetic energy density read in
  atomic valenz-charges read in
  non local Contribution for L=            0  read in
    real space projection operators read in
  non local Contribution for L=            0  read in
    real space projection operators read in
  non local Contribution for L=            1  read in
    real space projection operators read in
  non local Contribution for L=            1  read in
    real space projection operators read in
  non local Contribution for L=            2  read in
    real space projection operators read in
  non local Contribution for L=            2  read in
    real space projection operators read in
    PAW grid and wavefunctions read in
 
   number of l-projection  operators is LMAX  =            6
   number of lm-projection operators is LMMAX =           18
 
 POTCAR:    PAW_PBE Li_sv 10Sep2004               
   SHA256 =  7e51fe1804c037e1dccc81a9c376d94d693a7559600c847f4b41960edb8ab895 Li_sv/POTCAR          
   COPYR  = (c) Copyright 10Sep2004 Georg Kresse                                                    
   COPYR  = This file is part of the software VASP. Any use, copying, and all other rights are regul
   COPYR  = If you do not have a valid VASP license, you may not use, copy or distribute this file. 
   VRHFIN =Li: 1s2s2p                                                                               
   LEXCH  = PE                                                                                      
   EATOM  =   202.7858 eV,   14.9043 Ry                                                             
                                                                                                    
   TITEL  = PAW_PBE Li_sv 10Sep2004                                                                 
   LULTRA =        F    use ultrasoft PP ?                                                          
   IUNSCR =        0    unscreen: 0-lin 1-nonlin 2-no                                               
   RPACOR =    0.000    partial core radius                                                         
   POMASS =    7.010; ZVAL   =    3.000    mass and valenz                                          
   RCORE  =    1.700    outmost cutoff radius                                                       
   RWIGS  =    2.050; RWIGS  =    1.085    wigner-seitz radius (au A)                               
   ENMAX  =  499.034; ENMIN  =  374.276 eV                                                          
   ICORE  =        2    local potential                                                             
   LCOR   =        T    correct aug charges                                                         
   LPAW   =        T    paw PP                                                                      
   EAUG   =  628.945                                                                                
   RMAX   =    1.732    core radius for proj-oper                                                   
   RAUG   =    1.300    factor for augmentation sphere                                              
   RDEP   =    1.728    radius for radial grids                                                     
   RDEPT  =    1.329    core radius for aug-charge                                                  
                                                                                                    
   Atomic configuration                                                                             
    4 entries                                                                                       
     n  l   j            E        occ.                                                              
     1  0  0.50       -51.8549   2.0000                                                             
     2  0  0.50        -2.8742   1.0000                                                             
     2  1  0.50        -1.3606   0.0000                                                             
     3  2  1.50        -1.3606   0.0000                                                             
   Description                                                                                      
     l       E           TYP  RCUT    TYP  RCUT                                                     
     0    -51.8548813     23  1.400                                                                 
     0     -2.8742052     23  1.700                                                                 
     1     -1.3605826     23  1.400                                                                 
     2     -1.3605826     23  1.400                                                                 
  local pseudopotential read in
  atomic valenz-charges read in
  non local Contribution for L=            0  read in
    real space projection operators read in
  non local Contribution for L=            0  read in
    real space projection operators read in
  non local Contribution for L=            1  read in
    real space projection operators read in
    PAW grid and wavefunctions read in
 
   number of l-projection  operators is LMAX  =            3
   number of lm-projection operators is LMMAX =            5
 
 POTCAR:    PAW_PBE La 06Sep2000                  
   SHA256 =  b7aad99517e50aeb53363b20a29bb0dfa896544080812fb23322f071df953199 La/POTCAR             
   COPYR  = (c) Copyright 06Sep2000 Georg Kresse                                                    
   COPYR  = This file is part of the software VASP. Any use, copying, and all other rights are regul
   COPYR  = If you do not have a valid VASP license, you may not use, copy or distribute this file. 
   VRHFIN =La : [core=Kr4d]                                                                         
   LEXCH  = PE                                                                                      
   EATOM  =   865.9763 eV,   63.6475 Ry                                                             
                                                                                                    
   TITEL  = PAW_PBE La 06Sep2000                                                                    
   LULTRA =        F    use ultrasoft PP ?                                                          
   IUNSCR =        1    unscreen: 0-lin 1-nonlin 2-no                                               
   RPACOR =    2.300    partial core radius                                                         
   POMASS =  138.900; ZVAL   =   11.000    mass and valenz                                          
   RCORE  =    2.800    outmost cutoff radius                                                       
   RWIGS  =    2.900; RWIGS  =    1.535    wigner-seitz radius (au A)                               
   ENMAX  =  219.292; ENMIN  =  164.469 eV                                                          
   RCLOC  =    1.601    cutoff for local pot                                                        
   LCOR   =        T    correct aug charges                                                         
   LPAW   =        T    paw PP                                                                      
   EAUG   =  583.575                                                                                
   DEXC   =    0.000                                                                                
   RMAX   =    2.853    core radius for proj-oper                                                   
   RAUG   =    1.300    factor for augmentation sphere                                              
   RDEP   =    2.802    radius for radial grids                                                     
   RDEPT  =    2.156    core radius for aug-charge                                                  
                                                                                                    
   Atomic configuration                                                                             
   14 entries                                                                                       
     n  l   j            E        occ.                                                              
     1  0  0.50    -38741.0879   2.0000                                                             
     2  0  0.50     -6166.6801   2.0000                                                             
     2  1  1.50     -5526.1593   6.0000                                                             
     3  0  0.50     -1319.0200   2.0000                                                             
     3  1  1.50     -1114.5963   6.0000                                                             
     3  2  2.50      -821.1793  10.0000                                                             
     4  0  0.50      -266.3851   2.0000                                                             
     4  1  1.50      -199.9276   6.0000                                                             
     4  2  2.50      -103.8239  10.0000                                                             
     5  0  0.50       -38.9172   2.0000                                                             
     6  0  0.50        -3.6792   2.0000                                                             
     5  1  1.50       -22.3948   6.0000                                                             
     5  2  2.50        -3.0911   0.9999                                                             
     4  3  2.50        -4.3603   0.0001                                                             
   Description                                                                                      
     l       E           TYP  RCUT    TYP  RCUT                                                     
     0    -38.9171645     23  2.800                                                                 
     0     -3.6792381     23  2.800                                                                 
     1    -22.3948300     23  2.500                                                                 
     1     27.2116520     23  2.500                                                                 
     2     -3.0910934     23  2.500                                                                 
     2      1.0119135     23  2.500                                                                 
     3     -4.3602911     23  2.800                                                                 
     3     -5.7208737     23  2.800                                                                 
  local pseudopotential read in
  partial core-charges read in
  partial kinetic energy density read in
  atomic valenz-charges read in
  non local Contribution for L=            0  read in
    real space projection operators read in
  non local Contribution for L=            0  read in
    real space projection operators read in
  non local Contribution for L=            1  read in
    real space projection operators read in
  non local Contribution for L=            1  read in
    real space projection operators read in
  non local Contribution for L=            2  read in
    real space projection operators read in
  non local Contribution for L=            2  read in
    real space projection operators read in
  non local Contribution for L=            3  read in
    real space projection operators read in
  non local Contribution for L=            3  read in
    real space projection operators read in
    PAW grid and wavefunctions read in
 
   number of l-projection  operators is LMAX  =            8
   number of lm-projection operators is LMMAX =           32
 
 POTCAR:    PAW_PBE O 08Apr2002                   
   SHA256 =  818f92134a0a090dccd8ba1447fa70422a3b330e708bb4f08108d8ae51209ddf O/POTCAR              
   COPYR  = (c) Copyright 08Apr2002 Georg Kresse                                                    
   COPYR  = This file is part of the software VASP. Any use, copying, and all other rights are regul
   COPYR  = If you do not have a valid VASP license, you may not use, copy or distribute this file. 
   VRHFIN =O: s2p4                                                                                  
   LEXCH  = PE                                                                                      
   EATOM  =   432.3788 eV,   31.7789 Ry                                                             
                                                                                                    
   TITEL  = PAW_PBE O 08Apr2002                                                                     
   LULTRA =        F    use ultrasoft PP ?                                                          
   IUNSCR =        1    unscreen: 0-lin 1-nonlin 2-no                                               
   RPACOR =    1.200    partial core radius                                                         
   POMASS =   16.000; ZVAL   =    6.000    mass and valenz                                          
   RCORE  =    1.520    outmost cutoff radius                                                       
   RWIGS  =    1.550; RWIGS  =    0.820    wigner-seitz radius (au A)                               
   ENMAX  =  400.000; ENMIN  =  300.000 eV                                                          
   ICORE  =        2    local potential                                                             
   LCOR   =        T    correct aug charges                                                         
   LPAW   =        T    paw PP                                                                      
   EAUG   =  605.392                                                                                
   DEXC   =    0.000                                                                                
   RMAX   =    1.553    core radius for proj-oper                                                   
   RAUG   =    1.300    factor for augmentation sphere                                              
   RDEP   =    1.550    radius for radial grids                                                     
   RDEPT  =    1.329    core radius for aug-charge                                                  
                                                                                                    
   Atomic configuration                                                                             
    4 entries                                                                                       
     n  l   j            E        occ.                                                              
     1  0  0.50      -514.6923   2.0000                                                             
     2  0  0.50       -23.9615   2.0000                                                             
     2  1  0.50        -9.0305   4.0000                                                             
     3  2  1.50        -9.5241   0.0000                                                             
   Description                                                                                      
     l       E           TYP  RCUT    TYP  RCUT                                                     
     0    -23.9615318     23  1.200                                                                 
     0     -9.5240782     23  1.200                                                                 
     1     -9.0304911     23  1.520                                                                 
     1      8.1634956     23  1.520                                                                 
     2     -9.5240782      7  1.500                                                                 
  local pseudopotential read in
  partial core-charges read in
  partial kinetic energy density read in
  kinetic energy density of atom read in
  atomic valenz-charges read in
  non local Contribution for L=            0  read in
    real space projection operators read in
  non local Contribution for L=            0  read in
    real space projection operators read in
  non local Contribution for L=            1  read in
    real space projection operators read in
  non local Contribution for L=            1  read in
    real space projection operators read in
    PAW grid and wavefunctions read in
 
   number of l-projection  operators is LMAX  =            4
   number of lm-projection operators is LMMAX =            8
 
 Optimization of the real space projectors (new method)

 maximal supplied QI-value         = 15.12
 optimisation between [QCUT,QGAM] = [ 10.13, 20.41] = [ 28.73,116.64] Ry 
 Optimized for a Real-space Cutoff    1.60 Angstroem

   l    n(q)    QCUT    max X(q) W(low)/X(q) W(high)/X(q)  e(spline) 
   0     10    10.129    12.107    0.22E-04    0.16E-04    0.41E-07
   0     10    10.129     9.948    0.28E-04    0.32E-04    0.88E-07
   1      9    10.129     3.563    0.30E-04    0.37E-04    0.43E-07
   1      9    10.129     4.524    0.45E-03    0.38E-03    0.34E-06
   2      9    10.129    87.261    0.10E-03    0.10E-03    0.15E-06
   2      9    10.129    70.950    0.99E-04    0.10E-03    0.15E-06
 Optimization of the real space projectors (new method)

 maximal supplied QI-value         = 22.11
 optimisation between [QCUT,QGAM] = [ 10.17, 20.34] = [ 28.97,115.86] Ry 
 Optimized for a Real-space Cutoff    1.19 Angstroem

   l    n(q)    QCUT    max X(q) W(low)/X(q) W(high)/X(q)  e(spline) 
   0      7    10.171    10.506    0.63E-04    0.22E-04    0.29E-07
   0      7    10.171     8.367    0.17E-03    0.25E-04    0.68E-07
   1      7    10.171     8.983    0.32E-03    0.17E-03    0.15E-06
 Optimization of the real space projectors (new method)

 maximal supplied QI-value         = 13.42
 optimisation between [QCUT,QGAM] = [ 10.20, 20.39] = [ 29.12,116.47] Ry 
 Optimized for a Real-space Cutoff    1.65 Angstroem

   l    n(q)    QCUT    max X(q) W(low)/X(q) W(high)/X(q)  e(spline) 
   0     10    10.197    13.882    0.31E-04    0.23E-04    0.89E-07
   0     10    10.197    12.184    0.47E-04    0.37E-04    0.15E-06
   1     10    10.197     4.523    0.24E-04    0.16E-05    0.72E-07
   1     10    10.197     4.424    0.28E-04    0.11E-04    0.16E-06
   2      9    10.197    52.481    0.52E-04    0.16E-03    0.29E-06
   2      9    10.197    38.501    0.48E-04    0.15E-03    0.28E-06
   3      9    10.197    65.631    0.33E-03    0.27E-03    0.22E-06
   3      9    10.197    56.854    0.33E-03    0.27E-03    0.22E-06
 Optimization of the real space projectors (new method)

 maximal supplied QI-value         = 24.76
 optimisation between [QCUT,QGAM] = [ 10.15, 20.30] = [ 28.85,115.39] Ry 
 Optimized for a Real-space Cutoff    1.38 Angstroem

   l    n(q)    QCUT    max X(q) W(low)/X(q) W(high)/X(q)  e(spline) 
   0      8    10.150    20.381    0.22E-03    0.32E-03    0.29E-06
   0      8    10.150    15.268    0.23E-03    0.35E-03    0.30E-06
   1      8    10.150     5.964    0.46E-03    0.53E-03    0.21E-06
   1      8    10.150     5.382    0.38E-03    0.45E-03    0.19E-06
  PAW_PBE Zr_sv 04Jan2005               :
 energy of atom  1       EATOM=-1284.2219
 kinetic energy error for atom=    0.0075 (will be added to EATOM!!)
  PAW_PBE Li_sv 10Sep2004               :
 energy of atom  2       EATOM= -202.7858
 kinetic energy error for atom=    0.0926 (will be added to EATOM!!)
  PAW_PBE La 06Sep2000                  :
 energy of atom  3       EATOM= -865.9763
 kinetic energy error for atom=    0.0031 (will be added to EATOM!!)
  PAW_PBE O 08Apr2002                   :
 energy of atom  4       EATOM= -432.3788
 kinetic energy error for atom=    0.1156 (will be added to EATOM!!)
 
 
 POSCAR: cif2pos.py
  positions in direct lattice
  No initial velocities read in

  MD-specific parameters
                MDALGO =   2
                 CNEXP =     9.000   14.000
 exchange correlation table for  LEXCH =        8
   RHO(1)=    0.500       N(1)  =     2000
   RHO(2)=  100.500       N(2)  =     4000

 VTST: version 4.1, (05/19/21)

 CHAIN: initializing optimizer
 
 OPT: Using VASP Dynamics algorithm
 CHAIN: Read ICHAIN             0
 
 POSCAR: cif2pos.py
  positions in direct lattice
  No initial velocities read in
 


--------------------------------------------------------------------------------------------------------


 ion  position               nearest neighbor table
   1  0.000  0.250  0.125- 129 2.13 137 2.13 117 2.14 125 2.14 181 2.14 189 2.14  17 2.93  25 2.93
                            60 3.02  64 3.02  36 3.19  44 3.19  73 3.60  81 3.60  89 3.67  93 3.67
   2  0.750  0.500  0.375- 130 2.13 154 2.13 112 2.14 120 2.14 176 2.14 184 2.14  18 2.93  42 2.93
                            53 3.02  57 3.02  33 3.19  25 3.19  74 3.60  88 3.60  90 3.67  96 3.67
   3  0.500  0.250  0.625- 131 2.13 139 2.13 119 2.14 127 2.14 183 2.14 191 2.14  19 2.93  27 2.93
                            58 3.02  62 3.02  34 3.19  42 3.19  75 3.60  83 3.60  91 3.67  95 3.67
   4  0.750  0.000  0.875- 132 2.13 156 2.13 110 2.14 118 2.14 174 2.14 182 2.14  20 2.93  44 2.93
                            55 3.02  59 3.02  35 3.19  27 3.19  76 3.60  86 3.60  92 3.67  94 3.67
   5  0.500  0.750  0.125- 133 2.13 141 2.13 113 2.14 121 2.14 177 2.14 185 2.14  21 2.93  29 2.93
                            57 3.02  61 3.02  40 3.19  48 3.19  77 3.60  85 3.60  92 3.67  96 3.67
   6  0.250  0.500  0.875- 134 2.13 158 2.13 108 2.14 116 2.14 172 2.14 180 2.14  22 2.93  46 2.93
                            56 3.02  60 3.02  37 3.19  29 3.19  78 3.60  84 3.60  91 3.67  93 3.67
   7  0.000  0.750  0.625- 135 2.13 143 2.13 115 2.14 123 2.14 179 2.14 187 2.14  23 2.93  31 2.93
                            59 3.02  63 3.02  38 3.19  46 3.19  79 3.60  87 3.60  90 3.67  94 3.67
   8  0.250  0.000  0.375- 136 2.13 160 2.13 106 2.14 114 2.14 170 2.14 178 2.14  24 2.93  48 2.93
                            54 3.02  58 3.02  39 3.19  31 3.19  80 3.60  82 3.60  89 3.67  95 3.67
   9  0.250  0.000  0.875- 138 2.13 146 2.13 104 2.14 128 2.14 168 2.14 192 2.14  26 2.93  34 2.93
                            49 3.02  61 3.02  17 3.19  41 3.19  80 3.60  82 3.60  92 3.67  94 3.67
  10  0.250  0.500  0.375- 140 2.13 148 2.13 102 2.14 126 2.14 166 2.14 190 2.14  28 2.93  36 2.93
                            51 3.02  63 3.02  19 3.19  43 3.19  78 3.60  84 3.60  90 3.67  96 3.67
  11  0.750  0.000  0.375- 142 2.13 150 2.13 100 2.14 124 2.14 164 2.14 188 2.14  30 2.93  38 2.93
                            52 3.02  64 3.02  21 3.19  45 3.19  76 3.60  86 3.60  89 3.67  95 3.67
  12  0.750  0.500  0.875- 144 2.13 152 2.13  98 2.14 122 2.14 162 2.14 186 2.14  32 2.93  40 2.93
                            50 3.02  62 3.02  23 3.19  47 3.19  74 3.60  88 3.60  91 3.67  93 3.67
  13  0.500  0.750  0.625- 145 2.13 153 2.13 101 2.14 109 2.14 165 2.14 173 2.14  33 2.93  41 2.93
                            52 3.02  56 3.02  20 3.19  28 3.19  77 3.60  85 3.60  91 3.67  95 3.67
  14  0.000  0.750  0.125- 147 2.13 155 2.13 103 2.14 111 2.14 167 2.14 175 2.14  35 2.93  43 2.93
                            50 3.02  54 3.02  18 3.19  26 3.19  79 3.60  87 3.60  89 3.67  93 3.67
  15  0.000  0.250  0.625- 149 2.13 157 2.13  97 2.14 105 2.14 161 2.14 169 2.14  37 2.93  45 2.93
                            49 3.02  53 3.02  24 3.19  32 3.19  73 3.60  81 3.60  90 3.67  94 3.67
  16  0.500  0.250  0.125- 151 2.13 159 2.13  99 2.14 107 2.14 163 2.14 171 2.14  39 2.93  47 2.93
                            51 3.02  55 3.02  22 3.19  30 3.19  75 3.60  83 3.60  92 3.67  96 3.67
  17  0.081  0.162  0.931- 168 1.90 117 2.05  97 2.07 129 2.21  65 2.56   1 2.93  81 3.07   9 3.19

  18  0.838  0.581  0.181- 167 1.90 120 2.05  98 2.07 130 2.21  66 2.56   2 2.93  88 3.07  14 3.19

  19  0.419  0.338  0.431- 166 1.90 119 2.05  99 2.07 131 2.21  67 2.56   3 2.93  83 3.07  10 3.19

  20  0.662  0.919  0.681- 165 1.90 118 2.05 100 2.07 132 2.21  68 2.56   4 2.93  86 3.07  13 3.19

  21  0.581  0.838  0.319- 164 1.90 113 2.05 101 2.07 133 2.21  69 2.56   5 2.93  85 3.07  11 3.19

  22  0.338  0.419  0.069- 163 1.90 116 2.05 102 2.07 134 2.21  70 2.56   6 2.93  84 3.07  16 3.19

  23  0.919  0.662  0.819- 162 1.90 115 2.05 103 2.07 135 2.21  71 2.56   7 2.93  87 3.07  12 3.19

  24  0.162  0.081  0.569- 161 1.90 114 2.05 104 2.07 136 2.21  72 2.56   8 2.93  82 3.07  15 3.19

  25  0.919  0.338  0.319- 176 1.90 125 2.05 105 2.07 137 2.21  66 2.56   1 2.93  73 3.07   2 3.19

  26  0.162  0.919  0.069- 175 1.90 128 2.05 106 2.07 138 2.21  65 2.56   9 2.93  80 3.07  14 3.19

  27  0.581  0.162  0.819- 174 1.90 127 2.05 107 2.07 139 2.21  68 2.56   3 2.93  75 3.07   4 3.19

  28  0.338  0.581  0.569- 173 1.90 126 2.05 108 2.07 140 2.21  67 2.56  10 2.93  78 3.07  13 3.19

  29  0.419  0.662  0.931- 172 1.90 121 2.05 109 2.07 141 2.21  70 2.56   5 2.93  77 3.07   6 3.19

  30  0.662  0.081  0.181- 171 1.90 124 2.05 110 2.07 142 2.21  69 2.56  11 2.93  76 3.07  16 3.19

  31  0.081  0.838  0.431- 170 1.90 123 2.05 111 2.07 143 2.21  72 2.56   7 2.93  79 3.07   8 3.19

  32  0.838  0.419  0.681- 169 1.90 122 2.05 112 2.07 144 2.21  71 2.56  12 2.93  74 3.07  15 3.19

  33  0.581  0.662  0.431- 184 1.90 101 2.05 113 2.07 145 2.21  67 2.56  13 2.93  85 3.07   2 3.19

  34  0.338  0.081  0.681- 183 1.90 104 2.05 114 2.07 146 2.21  68 2.56   9 2.93  82 3.07   3 3.19

  35  0.919  0.838  0.931- 182 1.90 103 2.05 115 2.07 147 2.21  65 2.56  14 2.93  87 3.07   4 3.19

  36  0.162  0.419  0.181- 181 1.90 102 2.05 116 2.07 148 2.21  66 2.56  10 2.93  84 3.07   1 3.19

  37  0.081  0.338  0.819- 180 1.90  97 2.05 117 2.07 149 2.21  71 2.56  15 2.93  81 3.07   6 3.19

  38  0.838  0.919  0.569- 179 1.90 100 2.05 118 2.07 150 2.21  72 2.56  11 2.93  86 3.07   7 3.19

  39  0.419  0.162  0.319- 178 1.90  99 2.05 119 2.07 151 2.21  69 2.56  16 2.93  83 3.07   8 3.19

  40  0.662  0.581  0.069- 177 1.90  98 2.05 120 2.07 152 2.21  70 2.56  12 2.93  88 3.07   5 3.19

  41  0.419  0.838  0.819- 192 1.90 109 2.05 121 2.07 153 2.21  68 2.56  13 2.93  77 3.07   9 3.19

  42  0.662  0.419  0.569- 191 1.90 112 2.05 122 2.07 154 2.21  67 2.56   2 2.93  74 3.07   3 3.19

  43  0.081  0.662  0.319- 190 1.90 111 2.05 123 2.07 155 2.21  66 2.56  14 2.93  79 3.07  10 3.19

  44  0.838  0.081  0.069- 189 1.90 110 2.05 124 2.07 156 2.21  65 2.56   4 2.93  76 3.07   1 3.19

  45  0.919  0.162  0.431- 188 1.90 105 2.05 125 2.07 157 2.21  72 2.56  15 2.93  73 3.07  11 3.19

  46  0.162  0.581  0.681- 187 1.90 108 2.05 126 2.07 158 2.21  71 2.56   6 2.93  78 3.07   7 3.19

  47  0.581  0.338  0.931- 186 1.90 107 2.05 127 2.07 159 2.21  70 2.56  16 2.93  75 3.07  12 3.19

  48  0.338  0.919  0.181- 185 1.90 106 2.05 128 2.07 160 2.21  69 2.56   8 2.93  80 3.07   5 3.19

  49  0.181  0.181  0.750- 104 1.98  97 1.98   9 3.02  15 3.02  75 3.13  78 3.13
  50  0.819  0.681  0.000-  98 1.98 103 1.98  12 3.02  14 3.02  76 3.13  77 3.13
  51  0.319  0.319  0.250- 102 1.98  99 1.98  10 3.02  16 3.02  73 3.13  80 3.13
  52  0.681  0.819  0.500- 100 1.98 101 1.98  11 3.02  13 3.02  74 3.13  79 3.13
  53  0.819  0.319  0.500- 112 1.98 105 1.98   2 3.02  15 3.02  83 3.13  86 3.13
  54  0.181  0.819  0.250- 106 1.98 111 1.98   8 3.02  14 3.02  84 3.13  85 3.13
  55  0.681  0.181  0.000- 110 1.98 107 1.98   4 3.02  16 3.02  81 3.13  88 3.13
  56  0.319  0.681  0.750- 108 1.98 109 1.98   6 3.02  13 3.02  82 3.13  87 3.13
  57  0.681  0.681  0.250- 120 1.98 113 1.98   2 3.02   5 3.02  76 3.13  79 3.13
  58  0.319  0.181  0.500- 114 1.98 119 1.98   3 3.02   8 3.02  73 3.13  78 3.13
  59  0.819  0.819  0.750- 118 1.98 115 1.98   4 3.02   7 3.02  74 3.13  77 3.13
  60  0.181  0.319  0.000- 116 1.98 117 1.98   1 3.02   6 3.02  75 3.13  80 3.13
  61  0.319  0.819  0.000- 128 1.98 121 1.98   5 3.02   9 3.02  84 3.13  87 3.13
  62  0.681  0.319  0.750- 122 1.98 127 1.98   3 3.02  12 3.02  81 3.13  86 3.13
  63  0.181  0.681  0.500- 126 1.98 123 1.98   7 3.02  10 3.02  82 3.13  85 3.13
  64  0.819  0.181  0.250- 124 1.98 125 1.98   1 3.02  11 3.02  83 3.13  88 3.13
  65  0.000  0.000  0.000- 129 1.92 138 1.92 147 1.92 156 1.92  17 2.56  26 2.56  35 2.56  44 2.56

  66  0.000  0.500  0.250- 130 1.92 137 1.92 148 1.92 155 1.92  18 2.56  25 2.56  36 2.56  43 2.56

  67  0.500  0.500  0.500- 131 1.92 140 1.92 145 1.92 154 1.92  19 2.56  28 2.56  33 2.56  42 2.56

  68  0.500  0.000  0.750- 132 1.92 139 1.92 146 1.92 153 1.92  20 2.56  27 2.56  34 2.56  41 2.56

  69  0.500  0.000  0.250- 133 1.92 142 1.92 151 1.92 160 1.92  21 2.56  30 2.56  39 2.56  48 2.56

  70  0.500  0.500  0.000- 134 1.92 141 1.92 152 1.92 159 1.92  22 2.56  29 2.56  40 2.56  47 2.56

  71  0.000  0.500  0.750- 135 1.92 144 1.92 149 1.92 158 1.92  23 2.56  32 2.56  37 2.56  46 2.56

  72  0.000  0.000  0.500- 136 1.92 143 1.92 150 1.92 157 1.92  24 2.56  31 2.56  38 2.56  45 2.56

  73  0.127  0.250  0.375- 166 2.47 178 2.47 161 2.54 181 2.54 105 2.58 125 2.58 136 2.64 148 2.64
                            25 3.07  45 3.07  51 3.13  58 3.13   1 3.60  15 3.60  10 3.69   8 3.69
  74  0.750  0.627  0.625- 165 2.47 179 2.47 162 2.54 184 2.54 112 2.58 122 2.58 135 2.64 145 2.64
                            32 3.07  42 3.07  52 3.13  59 3.13   2 3.60  12 3.60   7 3.69  13 3.69
  75  0.373  0.250  0.875- 168 2.47 180 2.47 163 2.54 183 2.54 107 2.58 127 2.58 134 2.64 146 2.64
                            27 3.07  47 3.07  49 3.13  60 3.13   3 3.60  16 3.60   9 3.69   6 3.69
  76  0.750  0.873  0.125- 167 2.47 177 2.47 164 2.54 182 2.54 110 2.58 124 2.58 133 2.64 147 2.64
                            30 3.07  44 3.07  50 3.13  57 3.13   4 3.60  11 3.60   5 3.69  14 3.69
  77  0.627  0.750  0.875- 162 2.47 182 2.47 177 2.54 165 2.54 109 2.58 121 2.58 132 2.64 152 2.64
                            29 3.07  41 3.07  50 3.13  59 3.13   5 3.60  13 3.60  12 3.69   4 3.69
  78  0.250  0.373  0.625- 161 2.47 183 2.47 180 2.54 166 2.54 108 2.58 126 2.58 131 2.64 149 2.64
                            28 3.07  46 3.07  49 3.13  58 3.13   6 3.60  10 3.60   3 3.69  15 3.69
  79  0.873  0.750  0.375- 164 2.47 184 2.47 179 2.54 167 2.54 111 2.58 123 2.58 130 2.64 150 2.64
                            31 3.07  43 3.07  52 3.13  57 3.13   7 3.60  14 3.60  11 3.69   2 3.69
  80  0.250  0.127  0.125- 163 2.47 181 2.47 178 2.54 168 2.54 106 2.58 128 2.58 129 2.64 151 2.64
                            26 3.07  48 3.07  51 3.13  60 3.13   8 3.60   9 3.60   1 3.69  16 3.69
  81  0.873  0.250  0.875- 174 2.47 186 2.47 169 2.54 189 2.54  97 2.58 117 2.58 144 2.64 156 2.64
                            17 3.07  37 3.07  55 3.13  62 3.13   1 3.60  15 3.60  12 3.69   4 3.69
  82  0.250  0.873  0.625- 173 2.47 187 2.47 170 2.54 192 2.54 104 2.58 114 2.58 143 2.64 153 2.64
                            24 3.07  34 3.07  56 3.13  63 3.13   8 3.60   9 3.60   7 3.69  13 3.69
  83  0.627  0.250  0.375- 176 2.47 188 2.47 171 2.54 191 2.54  99 2.58 119 2.58 142 2.64 154 2.64
                            19 3.07  39 3.07  53 3.13  64 3.13   3 3.60  16 3.60  11 3.69   2 3.69
  84  0.250  0.627  0.125- 175 2.47 185 2.47 172 2.54 190 2.54 102 2.58 116 2.58 141 2.64 155 2.64
                            22 3.07  36 3.07  54 3.13  61 3.13   6 3.60  10 3.60   5 3.69  14 3.69
  85  0.373  0.750  0.375- 170 2.47 190 2.47 185 2.54 173 2.54 101 2.58 113 2.58 140 2.64 160 2.64
                            21 3.07  33 3.07  54 3.13  63 3.13   5 3.60  13 3.60  10 3.69   8 3.69
  86  0.750  0.127  0.625- 169 2.47 191 2.47 188 2.54 174 2.54 100 2.58 118 2.58 139 2.64 157 2.64
                            20 3.07  38 3.07  53 3.13  62 3.13   4 3.60  11 3.60   3 3.69  15 3.69
  87  0.127  0.750  0.875- 172 2.47 192 2.47 187 2.54 175 2.54 103 2.58 115 2.58 138 2.64 158 2.64
                            23 3.07  35 3.07  56 3.13  61 3.13   7 3.60  14 3.60   9 3.69   6 3.69
  88  0.750  0.373  0.125- 171 2.47 189 2.47 186 2.54 176 2.54  98 2.58 120 2.58 137 2.64 159 2.64
                            18 3.07  40 3.07  55 3.13  64 3.13   2 3.60  12 3.60   1 3.69  16 3.69
  89  0.000  0.000  0.250- 129 2.54 136 2.54 147 2.54 150 2.54 106 2.64 111 2.64 124 2.64 125 2.64
                             1 3.67   8 3.67  11 3.67  14 3.67
  90  0.000  0.500  0.500- 130 2.54 135 2.54 148 2.54 149 2.54 105 2.64 112 2.64 123 2.64 126 2.64
                             2 3.67   7 3.67  10 3.67  15 3.67
  91  0.500  0.500  0.750- 131 2.54 134 2.54 145 2.54 152 2.54 108 2.64 109 2.64 122 2.64 127 2.64
                             3 3.67   6 3.67  12 3.67  13 3.67
  92  0.500  0.000  0.000- 132 2.54 133 2.54 146 2.54 151 2.54 107 2.64 110 2.64 121 2.64 128 2.64
                             4 3.67   5 3.67   9 3.67  16 3.67
  93  0.000  0.500  0.000- 137 2.54 144 2.54 155 2.54 158 2.54  98 2.64 103 2.64 116 2.64 117 2.64
                             1 3.67   6 3.67  12 3.67  14 3.67
  94  0.000  0.000  0.750- 138 2.54 143 2.54 156 2.54 157 2.54  97 2.64 104 2.64 115 2.64 118 2.64
                             4 3.67   7 3.67   9 3.67  15 3.67
  95  0.500  0.000  0.500- 139 2.54 142 2.54 153 2.54 160 2.54 100 2.64 101 2.64 114 2.64 119 2.64
                             3 3.67   8 3.67  11 3.67  13 3.67
  96  0.500  0.500  0.250- 140 2.54 141 2.54 154 2.54 159 2.54  99 2.64 102 2.64 113 2.64 120 2.64
                             2 3.67   5 3.67  10 3.67  16 3.67
  97  0.035  0.195  0.779-  49 1.98  37 2.05  17 2.07  15 2.14  81 2.58  94 2.64
  98  0.805  0.535  0.029-  50 1.98  40 2.05  18 2.07  12 2.14  88 2.58  93 2.64
  99  0.465  0.305  0.279-  51 1.98  39 2.05  19 2.07  16 2.14  83 2.58  96 2.64
 100  0.695  0.965  0.529-  52 1.98  38 2.05  20 2.07  11 2.14  86 2.58  95 2.64
 101  0.535  0.805  0.471-  52 1.98  33 2.05  21 2.07  13 2.14  85 2.58  95 2.64
 102  0.305  0.465  0.221-  51 1.98  36 2.05  22 2.07  10 2.14  84 2.58  96 2.64
 103  0.965  0.695  0.971-  50 1.98  35 2.05  23 2.07  14 2.14  87 2.58  93 2.64
 104  0.195  0.035  0.721-  49 1.98  34 2.05  24 2.07   9 2.14  82 2.58  94 2.64
 105  0.965  0.305  0.471-  53 1.98  45 2.05  25 2.07  15 2.14  73 2.58  90 2.64
 106  0.195  0.965  0.221-  54 1.98  48 2.05  26 2.07   8 2.14  80 2.58  89 2.64
 107  0.535  0.195  0.971-  55 1.98  47 2.05  27 2.07  16 2.14  75 2.58  92 2.64
 108  0.305  0.535  0.721-  56 1.98  46 2.05  28 2.07   6 2.14  78 2.58  91 2.64
 109  0.465  0.695  0.779-  56 1.98  41 2.05  29 2.07  13 2.14  77 2.58  91 2.64
 110  0.695  0.035  0.029-  55 1.98  44 2.05  30 2.07   4 2.14  76 2.58  92 2.64
 111  0.035  0.805  0.279-  54 1.98  43 2.05  31 2.07  14 2.14  79 2.58  89 2.64
 112  0.805  0.465  0.529-  53 1.98  42 2.05  32 2.07   2 2.14  74 2.58  90 2.64
 113  0.535  0.695  0.279-  57 1.98  21 2.05  33 2.07   5 2.14  85 2.58  96 2.64
 114  0.305  0.035  0.529-  58 1.98  24 2.05  34 2.07   8 2.14  82 2.58  95 2.64
 115  0.965  0.805  0.779-  59 1.98  23 2.05  35 2.07   7 2.14  87 2.58  94 2.64
 116  0.195  0.465  0.029-  60 1.98  22 2.05  36 2.07   6 2.14  84 2.58  93 2.64
 117  0.035  0.305  0.971-  60 1.98  17 2.05  37 2.07   1 2.14  81 2.58  93 2.64
 118  0.805  0.965  0.721-  59 1.98  20 2.05  38 2.07   4 2.14  86 2.58  94 2.64
 119  0.465  0.195  0.471-  58 1.98  19 2.05  39 2.07   3 2.14  83 2.58  95 2.64
 120  0.695  0.535  0.221-  57 1.98  18 2.05  40 2.07   2 2.14  88 2.58  96 2.64
 121  0.465  0.805  0.971-  61 1.98  29 2.05  41 2.07   5 2.14  77 2.58  92 2.64
 122  0.695  0.465  0.721-  62 1.98  32 2.05  42 2.07  12 2.14  74 2.58  91 2.64
 123  0.035  0.695  0.471-  63 1.98  31 2.05  43 2.07   7 2.14  79 2.58  90 2.64
 124  0.805  0.035  0.221-  64 1.98  30 2.05  44 2.07  11 2.14  76 2.58  89 2.64
 125  0.965  0.195  0.279-  64 1.98  25 2.05  45 2.07   1 2.14  73 2.58  89 2.64
 126  0.195  0.535  0.529-  63 1.98  28 2.05  46 2.07  10 2.14  78 2.58  90 2.64
 127  0.535  0.305  0.779-  62 1.98  27 2.05  47 2.07   3 2.14  75 2.58  91 2.64
 128  0.305  0.965  0.029-  61 1.98  26 2.05  48 2.07   9 2.14  80 2.58  92 2.64
 129  0.055  0.102  0.091-  65 1.92   1 2.13  17 2.21  89 2.54  80 2.64
 130  0.898  0.555  0.341-  66 1.92   2 2.13  18 2.21  90 2.54  79 2.64
 131  0.445  0.398  0.591-  67 1.92   3 2.13  19 2.21  91 2.54  78 2.64
 132  0.602  0.945  0.841-  68 1.92   4 2.13  20 2.21  92 2.54  77 2.64
 133  0.555  0.898  0.159-  69 1.92   5 2.13  21 2.21  92 2.54  76 2.64
 134  0.398  0.445  0.909-  70 1.92   6 2.13  22 2.21  91 2.54  75 2.64
 135  0.945  0.602  0.659-  71 1.92   7 2.13  23 2.21  90 2.54  74 2.64
 136  0.102  0.055  0.409-  72 1.92   8 2.13  24 2.21  89 2.54  73 2.64
 137  0.945  0.398  0.159-  66 1.92   1 2.13  25 2.21  93 2.54  88 2.64
 138  0.102  0.945  0.909-  65 1.92   9 2.13  26 2.21  94 2.54  87 2.64
 139  0.555  0.102  0.659-  68 1.92   3 2.13  27 2.21  95 2.54  86 2.64
 140  0.398  0.555  0.409-  67 1.92  10 2.13  28 2.21  96 2.54  85 2.64
 141  0.445  0.602  0.091-  70 1.92   5 2.13  29 2.21  96 2.54  84 2.64
 142  0.602  0.055  0.341-  69 1.92  11 2.13  30 2.21  95 2.54  83 2.64
 143  0.055  0.898  0.591-  72 1.92   7 2.13  31 2.21  94 2.54  82 2.64
 144  0.898  0.445  0.841-  71 1.92  12 2.13  32 2.21  93 2.54  81 2.64
 145  0.555  0.602  0.591-  67 1.92  13 2.13  33 2.21  91 2.54  74 2.64
 146  0.398  0.055  0.841-  68 1.92   9 2.13  34 2.21  92 2.54  75 2.64
 147  0.945  0.898  0.091-  65 1.92  14 2.13  35 2.21  89 2.54  76 2.64
 148  0.102  0.445  0.341-  66 1.92  10 2.13  36 2.21  90 2.54  73 2.64
 149  0.055  0.398  0.659-  71 1.92  15 2.13  37 2.21  90 2.54  78 2.64
 150  0.898  0.945  0.409-  72 1.92  11 2.13  38 2.21  89 2.54  79 2.64
 151  0.445  0.102  0.159-  69 1.92  16 2.13  39 2.21  92 2.54  80 2.64
 152  0.602  0.555  0.909-  70 1.92  12 2.13  40 2.21  91 2.54  77 2.64
 153  0.445  0.898  0.659-  68 1.92  13 2.13  41 2.21  95 2.54  82 2.64
 154  0.602  0.445  0.409-  67 1.92   2 2.13  42 2.21  96 2.54  83 2.64
 155  0.055  0.602  0.159-  66 1.92  14 2.13  43 2.21  93 2.54  84 2.64
 156  0.898  0.055  0.909-  65 1.92   4 2.13  44 2.21  94 2.54  81 2.64
 157  0.945  0.102  0.591-  72 1.92  15 2.13  45 2.21  94 2.54  86 2.64
 158  0.102  0.555  0.841-  71 1.92   6 2.13  46 2.21  93 2.54  87 2.64
 159  0.555  0.398  0.091-  70 1.92  16 2.13  47 2.21  96 2.54  88 2.64
 160  0.398  0.945  0.341-  69 1.92   8 2.13  48 2.21  95 2.54  85 2.64
 161  0.151  0.223  0.571-  24 1.90  15 2.14  78 2.47  73 2.54
 162  0.777  0.651  0.821-  23 1.90  12 2.14  77 2.47  74 2.54
 163  0.349  0.277  0.071-  22 1.90  16 2.14  80 2.47  75 2.54
 164  0.723  0.849  0.321-  21 1.90  11 2.14  79 2.47  76 2.54
 165  0.651  0.777  0.679-  20 1.90  13 2.14  74 2.47  77 2.54
 166  0.277  0.349  0.429-  19 1.90  10 2.14  73 2.47  78 2.54
 167  0.849  0.723  0.179-  18 1.90  14 2.14  76 2.47  79 2.54
 168  0.223  0.151  0.929-  17 1.90   9 2.14  75 2.47  80 2.54
 169  0.849  0.277  0.679-  32 1.90  15 2.14  86 2.47  81 2.54
 170  0.223  0.849  0.429-  31 1.90   8 2.14  85 2.47  82 2.54
 171  0.651  0.223  0.179-  30 1.90  16 2.14  88 2.47  83 2.54
 172  0.277  0.651  0.929-  29 1.90   6 2.14  87 2.47  84 2.54
 173  0.349  0.723  0.571-  28 1.90  13 2.14  82 2.47  85 2.54
 174  0.723  0.151  0.821-  27 1.90   4 2.14  81 2.47  86 2.54
 175  0.151  0.777  0.071-  26 1.90  14 2.14  84 2.47  87 2.54
 176  0.777  0.349  0.321-  25 1.90   2 2.14  83 2.47  88 2.54
 177  0.651  0.723  0.071-  40 1.90   5 2.14  76 2.47  77 2.54
 178  0.277  0.151  0.321-  39 1.90   8 2.14  73 2.47  80 2.54
 179  0.849  0.777  0.571-  38 1.90   7 2.14  74 2.47  79 2.54
 180  0.223  0.349  0.821-  37 1.90   6 2.14  75 2.47  78 2.54
 181  0.151  0.277  0.179-  36 1.90   1 2.14  80 2.47  73 2.54
 182  0.777  0.849  0.929-  35 1.90   4 2.14  77 2.47  76 2.54
 183  0.349  0.223  0.679-  34 1.90   3 2.14  78 2.47  75 2.54
 184  0.723  0.651  0.429-  33 1.90   2 2.14  79 2.47  74 2.54
 185  0.349  0.777  0.179-  48 1.90   5 2.14  84 2.47  85 2.54
 186  0.723  0.349  0.929-  47 1.90  12 2.14  81 2.47  88 2.54
 187  0.151  0.723  0.679-  46 1.90   7 2.14  82 2.47  87 2.54
 188  0.777  0.151  0.429-  45 1.90  11 2.14  83 2.47  86 2.54
 189  0.849  0.223  0.071-  44 1.90   1 2.14  88 2.47  81 2.54
 190  0.223  0.651  0.321-  43 1.90  10 2.14  85 2.47  84 2.54
 191  0.651  0.277  0.571-  42 1.90   3 2.14  86 2.47  83 2.54
 192  0.277  0.849  0.821-  41 1.90   9 2.14  87 2.47  82 2.54
 

IMPORTANT INFORMATION: All symmetrisations will be switched off!
NOSYMM: (Re-)initialisation of all symmetry stuff for point group C_1.


----------------------------------------------------------------------------------------

                                     Primitive cell                                     

  volume of cell :    2225.2570

  direct lattice vectors                    reciprocal lattice vectors
    13.236070000  0.000000000  0.000000000     0.075551127  0.000000000  0.000000000
     0.000000000 13.236070000  0.000000000     0.000000000  0.075551127  0.000000000
     0.000000000  0.000000000 12.701706000     0.000000000  0.000000000  0.078729582

  length of vectors
    13.236070000 13.236070000 12.701706000     0.075551127  0.075551127  0.078729582

  position of ions in fractional coordinates (direct lattice)
     0.000000000  0.250000000  0.125000000
     0.750000000  0.500000000  0.375000000
     0.500000000  0.250000000  0.625000000
     0.750000000  0.000000000  0.875000000
     0.500000000  0.750000000  0.125000000
     0.250000000  0.500000000  0.875000000
     0.000000000  0.750000000  0.625000000
     0.250000000  0.000000000  0.375000000
     0.250000000  0.000000000  0.875000000
     0.250000000  0.500000000  0.375000000
     0.750000000  0.000000000  0.375000000
     0.750000000  0.500000000  0.875000000
     0.500000000  0.750000000  0.625000000
     0.000000000  0.750000000  0.125000000
     0.000000000  0.250000000  0.625000000
     0.500000000  0.250000000  0.125000000
     0.080515500  0.162465500  0.930856500
     0.837534500  0.580515500  0.180856500
     0.419484500  0.337534500  0.430856500
     0.662465500  0.919484500  0.680856500
     0.580515500  0.837534500  0.319143500
     0.337534500  0.419484500  0.069143500
     0.919484500  0.662465500  0.819143500
     0.162465500  0.080515500  0.569143500
     0.919484500  0.337534500  0.319143500
     0.162465500  0.919484500  0.069143500
     0.580515500  0.162465500  0.819143500
     0.337534500  0.580515500  0.569143500
     0.419484500  0.662465500  0.930856500
     0.662465500  0.080515500  0.180856500
     0.080515500  0.837534500  0.430856500
     0.837534500  0.419484500  0.680856500
     0.580515500  0.662465500  0.430856500
     0.337534500  0.080515500  0.680856500
     0.919484500  0.837534500  0.930856500
     0.162465500  0.419484500  0.180856500
     0.080515500  0.337534500  0.819143500
     0.837534500  0.919484500  0.569143500
     0.419484500  0.162465500  0.319143500
     0.662465500  0.580515500  0.069143500
     0.419484500  0.837534500  0.819143500
     0.662465500  0.419484500  0.569143500
     0.080515500  0.662465500  0.319143500
     0.837534500  0.080515500  0.069143500
     0.919484500  0.162465500  0.430856500
     0.162465500  0.580515500  0.680856500
     0.580515500  0.337534500  0.930856500
     0.337534500  0.919484500  0.180856500
     0.181211000  0.181211000  0.750000000
     0.818789000  0.681211000  0.000000000
     0.318789000  0.318789000  0.250000000
     0.681211000  0.818789000  0.500000000
     0.818789000  0.318789000  0.500000000
     0.181211000  0.818789000  0.250000000
     0.681211000  0.181211000  0.000000000
     0.318789000  0.681211000  0.750000000
     0.681211000  0.681211000  0.250000000
     0.318789000  0.181211000  0.500000000
     0.818789000  0.818789000  0.750000000
     0.181211000  0.318789000  0.000000000
     0.318789000  0.818789000  0.000000000
     0.681211000  0.318789000  0.750000000
     0.181211000  0.681211000  0.500000000
     0.818789000  0.181211000  0.250000000
     0.000000000  0.000000000  0.000000000
     0.000000000  0.500000000  0.250000000
     0.500000000  0.500000000  0.500000000
     0.500000000  0.000000000  0.750000000
     0.500000000  0.000000000  0.250000000
     0.500000000  0.500000000  0.000000000
     0.000000000  0.500000000  0.750000000
     0.000000000  0.000000000  0.500000000
     0.127370000  0.250000000  0.375000000
     0.750000000  0.627370000  0.625000000
     0.372630000  0.250000000  0.875000000
     0.750000000  0.872630000  0.125000000
     0.627370000  0.750000000  0.875000000
     0.250000000  0.372630000  0.625000000
     0.872630000  0.750000000  0.375000000
     0.250000000  0.127370000  0.125000000
     0.872630000  0.250000000  0.875000000
     0.250000000  0.872630000  0.625000000
     0.627370000  0.250000000  0.375000000
     0.250000000  0.627370000  0.125000000
     0.372630000  0.750000000  0.375000000
     0.750000000  0.127370000  0.625000000
     0.127370000  0.750000000  0.875000000
     0.750000000  0.372630000  0.125000000
     0.000000000  0.000000000  0.250000000
     0.000000000  0.500000000  0.500000000
     0.500000000  0.500000000  0.750000000
     0.500000000  0.000000000  0.000000000
     0.000000000  0.500000000  0.000000000
     0.000000000  0.000000000  0.750000000
     0.500000000  0.000000000  0.500000000
     0.500000000  0.500000000  0.250000000
     0.034616000  0.194517000  0.778704000
     0.805483000  0.534616000  0.028704000
     0.465384000  0.305483000  0.278704000
     0.694517000  0.965384000  0.528704000
     0.534616000  0.805483000  0.471296000
     0.305483000  0.465384000  0.221296000
     0.965384000  0.694517000  0.971296000
     0.194517000  0.034616000  0.721296000
     0.965384000  0.305483000  0.471296000
     0.194517000  0.965384000  0.221296000
     0.534616000  0.194517000  0.971296000
     0.305483000  0.534616000  0.721296000
     0.465384000  0.694517000  0.778704000
     0.694517000  0.034616000  0.028704000
     0.034616000  0.805483000  0.278704000
     0.805483000  0.465384000  0.528704000
     0.534616000  0.694517000  0.278704000
     0.305483000  0.034616000  0.528704000
     0.965384000  0.805483000  0.778704000
     0.194517000  0.465384000  0.028704000
     0.034616000  0.305483000  0.971296000
     0.805483000  0.965384000  0.721296000
     0.465384000  0.194517000  0.471296000
     0.694517000  0.534616000  0.221296000
     0.465384000  0.805483000  0.971296000
     0.694517000  0.465384000  0.721296000
     0.034616000  0.694517000  0.471296000
     0.805483000  0.034616000  0.221296000
     0.965384000  0.194517000  0.278704000
     0.194517000  0.534616000  0.528704000
     0.534616000  0.305483000  0.778704000
     0.305483000  0.965384000  0.028704000
     0.054963000  0.102443000  0.090667000
     0.897557000  0.554963000  0.340667000
     0.445037000  0.397557000  0.590667000
     0.602443000  0.945037000  0.840667000
     0.554963000  0.897557000  0.159333000
     0.397557000  0.445037000  0.909333000
     0.945037000  0.602443000  0.659333000
     0.102443000  0.054963000  0.409333000
     0.945037000  0.397557000  0.159333000
     0.102443000  0.945037000  0.909333000
     0.554963000  0.102443000  0.659333000
     0.397557000  0.554963000  0.409333000
     0.445037000  0.602443000  0.090667000
     0.602443000  0.054963000  0.340667000
     0.054963000  0.897557000  0.590667000
     0.897557000  0.445037000  0.840667000
     0.554963000  0.602443000  0.590667000
     0.397557000  0.054963000  0.840667000
     0.945037000  0.897557000  0.090667000
     0.102443000  0.445037000  0.340667000
     0.054963000  0.397557000  0.659333000
     0.897557000  0.945037000  0.409333000
     0.445037000  0.102443000  0.159333000
     0.602443000  0.554963000  0.909333000
     0.445037000  0.897557000  0.659333000
     0.602443000  0.445037000  0.409333000
     0.054963000  0.602443000  0.159333000
     0.897557000  0.054963000  0.909333000
     0.945037000  0.102443000  0.590667000
     0.102443000  0.554963000  0.840667000
     0.554963000  0.397557000  0.090667000
     0.397557000  0.945037000  0.340667000
     0.150823000  0.223227000  0.571236000
     0.776773000  0.650823000  0.821236000
     0.349177000  0.276773000  0.071236000
     0.723227000  0.849177000  0.321236000
     0.650823000  0.776773000  0.678764000
     0.276773000  0.349177000  0.428764000
     0.849177000  0.723227000  0.178764000
     0.223227000  0.150823000  0.928764000
     0.849177000  0.276773000  0.678764000
     0.223227000  0.849177000  0.428764000
     0.650823000  0.223227000  0.178764000
     0.276773000  0.650823000  0.928764000
     0.349177000  0.723227000  0.571236000
     0.723227000  0.150823000  0.821236000
     0.150823000  0.776773000  0.071236000
     0.776773000  0.349177000  0.321236000
     0.650823000  0.723227000  0.071236000
     0.276773000  0.150823000  0.321236000
     0.849177000  0.776773000  0.571236000
     0.223227000  0.349177000  0.821236000
     0.150823000  0.276773000  0.178764000
     0.776773000  0.849177000  0.928764000
     0.349177000  0.223227000  0.678764000
     0.723227000  0.650823000  0.428764000
     0.349177000  0.776773000  0.178764000
     0.723227000  0.349177000  0.928764000
     0.150823000  0.723227000  0.678764000
     0.776773000  0.150823000  0.428764000
     0.849177000  0.223227000  0.071236000
     0.223227000  0.650823000  0.321236000
     0.650823000  0.276773000  0.571236000
     0.276773000  0.849177000  0.821236000

  ion indices of the primitive-cell ions
   primitive index   ion index
                 1           1
                 2           2
                 3           3
                 4           4
                 5           5
                 6           6
                 7           7
                 8           8
                 9           9
                10          10
                11          11
                12          12
                13          13
                14          14
                15          15
                16          16
                17          17
                18          18
                19          19
                20          20
                21          21
                22          22
                23          23
                24          24
                25          25
                26          26
                27          27
                28          28
                29          29
                30          30
                31          31
                32          32
                33          33
                34          34
                35          35
                36          36
                37          37
                38          38
                39          39
                40          40
                41          41
                42          42
                43          43
                44          44
                45          45
                46          46
                47          47
                48          48
                49          49
                50          50
                51          51
                52          52
                53          53
                54          54
                55          55
                56          56
                57          57
                58          58
                59          59
                60          60
                61          61
                62          62
                63          63
                64          64
                65          65
                66          66
                67          67
                68          68
                69          69
                70          70
                71          71
                72          72
                73          73
                74          74
                75          75
                76          76
                77          77
                78          78
                79          79
                80          80
                81          81
                82          82
                83          83
                84          84
                85          85
                86          86
                87          87
                88          88
                89          89
                90          90
                91          91
                92          92
                93          93
                94          94
                95          95
                96          96
                97          97
                98          98
                99          99
               100         100
               101         101
               102         102
               103         103
               104         104
               105         105
               106         106
               107         107
               108         108
               109         109
               110         110
               111         111
               112         112
               113         113
               114         114
               115         115
               116         116
               117         117
               118         118
               119         119
               120         120
               121         121
               122         122
               123         123
               124         124
               125         125
               126         126
               127         127
               128         128
               129         129
               130         130
               131         131
               132         132
               133         133
               134         134
               135         135
               136         136
               137         137
               138         138
               139         139
               140         140
               141         141
               142         142
               143         143
               144         144
               145         145
               146         146
               147         147
               148         148
               149         149
               150         150
               151         151
               152         152
               153         153
               154         154
               155         155
               156         156
               157         157
               158         158
               159         159
               160         160
               161         161
               162         162
               163         163
               164         164
               165         165
               166         166
               167         167
               168         168
               169         169
               170         170
               171         171
               172         172
               173         173
               174         174
               175         175
               176         176
               177         177
               178         178
               179         179
               180         180
               181         181
               182         182
               183         183
               184         184
               185         185
               186         186
               187         187
               188         188
               189         189
               190         190
               191         191
               192         192

----------------------------------------------------------------------------------------

 
 
 KPOINTS: K-Spacing Value to Generate K-Mesh: 0.04

Automatic generation of k-mesh.
 Grid dimensions read from file:
 generate k-points for:    1    1    1

 Generating k-lattice:

  Cartesian coordinates                     Fractional coordinates (reciprocal lattice)
     0.075551127  0.000000000  0.000000000     1.000000000  0.000000000  0.000000000
     0.000000000  0.075551127  0.000000000     0.000000000  1.000000000  0.000000000
     0.000000000  0.000000000  0.078729582     0.000000000  0.000000000  1.000000000

  Length of vectors
     0.075551127  0.075551127  0.078729582

  Shift w.r.t. Gamma in fractional coordinates (k-lattice)
     0.000000000  0.000000000  0.000000000

 
 Subroutine IBZKPT returns following result:
 ===========================================
 
 Found      1 irreducible k-points:
 
 Following reciprocal coordinates:
            Coordinates               Weight
  0.000000  0.000000  0.000000      1.000000
 
 Following cartesian coordinates:
            Coordinates               Weight
  0.000000  0.000000  0.000000      1.000000
 


--------------------------------------------------------------------------------------------------------




 Dimension of arrays:
   k-points           NKPTS =      1   k-points in BZ     NKDIM =      1   number of bands    NBANDS=    768
   number of dos      NEDOS =    301   number of ions     NIONS =    192
   non local maximal  LDIM  =      8   non local SUM 2l+1 LMDIM =     32
   total plane-waves  NPLWV = 313600
   max r-space proj   IRMAX =   2694   max aug-charges    IRDMAX=   7563
   dimension x,y,z NGX =    70 NGY =   70 NGZ =   64
   dimension x,y,z NGXF=   140 NGYF=  140 NGZF=  128
   support grid    NGXF=   140 NGYF=  140 NGZF=  128
   ions per type =              16  56  24  96
   NGX,Y,Z   is equivalent  to a cutoff of   8.79,  8.79,  8.38 a.u.
   NGXF,Y,Z  is equivalent  to a cutoff of  17.58, 17.58, 16.75 a.u.

 SYSTEM =  AIMD-MLFF-ON-THE-FLY                    
 POSCAR =  cif2pos.py                              

 Startparameter for this run:
   NWRITE =      2    write-flag & timer
   PREC   = normal    normal or accurate (medium, high low for compatibility)
   ISTART =      0    job   : 0-new  1-cont  2-samecut
   ICHARG =      2    charge: 1-file 2-atom 10-const
   ISPIN  =      1    spin polarized calculation?
   LNONCOLLINEAR =      F non collinear calculations
   LSORBIT =      F    spin-orbit coupling
   INIWAV =      1    electr: 0-lowe 1-rand  2-diag
   LASPH  =      F    aspherical Exc in radial PAW
 Electronic Relaxation 1
   ENCUT  =  400.0 eV  29.40 Ry    5.42 a.u.  21.58 21.58 20.71*2*pi/ulx,y,z
   ENINI  =  400.0     initial cutoff
   ENAUG  =  628.9 eV  augmentation charge cutoff
   NELM   =     40;   NELMIN=  2; NELMDL= -5     # of ELM steps 
   EDIFF  = 0.1E-04   stopping-criterion for ELM
   LREAL  =      T    real-space projection
   NLSPLINE    = F    spline interpolate recip. space projectors
   LCOMPAT=      F    compatible to vasp.4.4
   GGA_COMPAT  = T    GGA compatible to vasp.4.4-vasp.4.6
   LMAXPAW     = -100 max onsite density
   LMAXMIX     =    2 max onsite mixed and CHGCAR
   VOSKOWN=      0    Vosko Wilk Nusair interpolation
   ROPT   =   -0.00050  -0.00050  -0.00050  -0.00050
 Ionic relaxation
   EDIFFG = 0.1E-03   stopping-criterion for IOM
   NSW    =   3000    number of steps for IOM
   NBLOCK =      1;   KBLOCK =   3000    inner block; outer block 
   IBRION =      0    ionic relax: 0-MD 1-quasi-New 2-CG
   NFREE  =      0    steps in history (QN), initial steepest desc. (CG)
   ISIF   =      2    stress and relaxation
   IWAVPR =     11    prediction:  0-non 1-charg 2-wave 3-comb
   ISYM   =      0    0-nonsym 1-usesym 2-fastsym
   LCORR  =      T    Harris-Foulkes like correction to forces

   POTIM  = 1.0000    time-step for ionic-motion
   TEIN   =  300.0    initial temperature
   TEBEG  =  300.0;   TEEND  = 300.0 temperature during run
   SMASS  =   0.07    Nose mass-parameter (am)
   estimated Nose-frequenzy (Omega)   =  0.16E+15 period in steps = 0.40E+02 mass=   0.883E-28a.u.
   SCALEE = 1.0000    scale energy and forces
   NPACO  =    256;   APACO  = 10.0  distance and # of slots for P.C.
   PSTRESS=    0.0 pullay stress

  Mass of Ions in am
   POMASS =  91.22  7.01138.90 16.00
  Ionic Valenz
   ZVAL   =  12.00  3.00 11.00  6.00
  Atomic Wigner-Seitz radii
   RWIGS  =  -1.00 -1.00 -1.00 -1.00
  virtual crystal weights 
   VCA    =   1.00  1.00  1.00  1.00
   NELECT =    1200.0000    total number of electrons
   NUPDOWN=      -1.0000    fix difference up-down

 DOS related values:
   EMIN   =  10.00;   EMAX   =-10.00  energy-range for DOS
   EFERMI =   0.00;   METHOD = LEGACY      
   ISMEAR =     0;   SIGMA  =   0.10  broadening in eV -4-tet -1-fermi 0-gaus

 Electronic relaxation 2 (details)
   IALGO  =     38    algorithm
   LDIAG  =      T    sub-space diagonalisation (order eigenvalues)
   LSUBROT=      F    optimize rotation matrix (better conditioning)
   TURBO    =      0    0=normal 1=particle mesh
   IRESTART =      0    0=no restart 2=restart with 2 vectors
   NREBOOT  =      0    no. of reboots
   NMIN     =      0    reboot dimension
   EREF     =   0.00    reference energy to select bands
   IMIX   =      4    mixing-type and parameters
     AMIX     =   0.40;   BMIX     =  1.00
     AMIX_MAG =   1.60;   BMIX_MAG =  1.00
     AMIN     =   0.10
     WC   =   100.;   INIMIX=   1;  MIXPRE=   1;  MAXMIX= -45

 Intra band minimization:
   WEIMIN = 0.0010     energy-eigenvalue tresh-hold
   EBREAK =  0.33E-08  absolut break condition
   DEPER  =   0.30     relativ break condition  

   TIME   =   0.40     timestep for ELM

  volume/ion in A,a.u.               =      11.59        78.21
  Fermi-wavevector in a.u.,A,eV,Ry     =   1.332524  2.518106 24.158796  1.775621
  Thomas-Fermi vector in A             =   2.461453
 
 Write flags
   LWAVE        =      F    write WAVECAR
   LDOWNSAMPLE  =      F    k-point downsampling of WAVECAR
   LCHARG       =      F    write CHGCAR
   LVTOT        =      F    write LOCPOT, total local potential
   LVHAR        =      F    write LOCPOT, Hartree potential only
   LELF         =      F    write electronic localiz. function (ELF)
   LORBIT       =      0    0 simple, 1 ext, 2 COOP (PROOUT), +10 PAW based schemes


 Dipole corrections
   LMONO  =      F    monopole corrections only (constant potential shift)
   LDIPOL =      F    correct potential (dipole corrections)
   IDIPOL =      0    1-x, 2-y, 3-z, 4-all directions 
   EPSILON=  1.0000000 bulk dielectric constant

 Exchange correlation treatment:
   GGA     =    PE    GGA type
   LEXCH   =     8    internal setting for exchange type
   LIBXC   =     F    Libxc                    
   VOSKOWN =     0    Vosko Wilk Nusair interpolation
   LHFCALC =     F    Hartree Fock is set to
   LHFONE  =     F    Hartree Fock one center treatment
   AEXX    =    0.0000 exact exchange contribution

 Linear response parameters
   LEPSILON=     F    determine dielectric tensor
   LRPA    =     F    only Hartree local field effects (RPA)
   LNABLA  =     F    use nabla operator in PAW spheres
   LVEL    =     F    velocity operator in full k-point grid
   CSHIFT  =0.1000    complex shift for real part using Kramers Kronig
   OMEGAMAX=  -1.0    maximum frequency
   DEG_THRESHOLD= 0.2000000E-02 threshold for treating states as degnerate
   RTIME   =   -0.100 relaxation time in fs
  (WPLASMAI=    0.000 imaginary part of plasma frequency in eV, 0.658/RTIME)
   DFIELD  = 0.0000000 0.0000000 0.0000000 field for delta impulse in time
 
  Optional k-point grid parameters
   LKPOINTS_OPT  =     F    use optional k-point grid
   KPOINTS_OPT_MODE=     1    mode for optional k-point grid
 
 Orbital magnetization related:
   ORBITALMAG=     F  switch on orbital magnetization
   LCHIMAG   =     F  perturbation theory with respect to B field
   DQ        =  0.001000  dq finite difference perturbation B field
   LLRAUG    =     F  two centre corrections for induced B field
   LBONE     =     F  B-component reconstruction in AE one-centre
   LVGVCALC  =     T  calculate vGv susceptibility
   LVGVAPPL  =     F  apply vGv susceptibility instead of pGv for G=0

 Random number generation:
   RANDOM_GENERATOR = DEFAULT
   PCG_SEED         = not used


--------------------------------------------------------------------------------------------------------


 molecular dynamics for ions
   using nose mass (canonical ensemble)
 charge density and potential will be updated during run
 non-spin polarized calculation
 Variant of blocked Davidson
 Davidson routine will perform the subspace rotation
 perform sub-space diagonalisation
    after iterative eigenvector-optimisation
 modified Broyden-mixing scheme, WC =      100.0
 initial mixing is a Kerker type mixing with AMIX =  0.4000 and BMIX =      1.0000
 Hartree-type preconditioning will be used
 using additional bands           168
 real space projection scheme for non local part
 use partial core corrections
 calculate Harris-corrections to forces 
   (improved forces if not selfconsistent)
 use gradient corrections 
 use of overlap-Matrix (Vanderbilt PP)
 Gauss-broadening in eV      SIGMA  =   0.10


--------------------------------------------------------------------------------------------------------


  energy-cutoff  :      400.00
  volume of cell :     2225.26
      direct lattice vectors                 reciprocal lattice vectors
    13.236070000  0.000000000  0.000000000     0.075551127  0.000000000  0.000000000
     0.000000000 13.236070000  0.000000000     0.000000000  0.075551127  0.000000000
     0.000000000  0.000000000 12.701706000     0.000000000  0.000000000  0.078729582

  length of vectors
    13.236070000 13.236070000 12.701706000     0.075551127  0.075551127  0.078729582


 
 k-points in units of 2pi/SCALE and weight: K-Spacing Value to Generate K-Mesh: 0.04
   0.00000000  0.00000000  0.00000000       1.000
 
 k-points in reciprocal lattice and weights: K-Spacing Value to Generate K-Mesh: 0.04
   0.00000000  0.00000000  0.00000000       1.000
 
 position of ions in fractional coordinates (direct lattice) 
   0.00000000  0.25000000  0.12500000
   0.75000000  0.50000000  0.37500000
   0.50000000  0.25000000  0.62500000
   0.75000000  0.00000000  0.87500000
   0.50000000  0.75000000  0.12500000
   0.25000000  0.50000000  0.87500000
   0.00000000  0.75000000  0.62500000
   0.25000000  0.00000000  0.37500000
   0.25000000  0.00000000  0.87500000
   0.25000000  0.50000000  0.37500000
   0.75000000  0.00000000  0.37500000
   0.75000000  0.50000000  0.87500000
   0.50000000  0.75000000  0.62500000
   0.00000000  0.75000000  0.12500000
   0.00000000  0.25000000  0.62500000
   0.50000000  0.25000000  0.12500000
   0.08051550  0.16246550  0.93085650
   0.83753450  0.58051550  0.18085650
   0.41948450  0.33753450  0.43085650
   0.66246550  0.91948450  0.68085650
   0.58051550  0.83753450  0.31914350
   0.33753450  0.41948450  0.06914350
   0.91948450  0.66246550  0.81914350
   0.16246550  0.08051550  0.56914350
   0.91948450  0.33753450  0.31914350
   0.16246550  0.91948450  0.06914350
   0.58051550  0.16246550  0.81914350
   0.33753450  0.58051550  0.56914350
   0.41948450  0.66246550  0.93085650
   0.66246550  0.08051550  0.18085650
   0.08051550  0.83753450  0.43085650
   0.83753450  0.41948450  0.68085650
   0.58051550  0.66246550  0.43085650
   0.33753450  0.08051550  0.68085650
   0.91948450  0.83753450  0.93085650
   0.16246550  0.41948450  0.18085650
   0.08051550  0.33753450  0.81914350
   0.83753450  0.91948450  0.56914350
   0.41948450  0.16246550  0.31914350
   0.66246550  0.58051550  0.06914350
   0.41948450  0.83753450  0.81914350
   0.66246550  0.41948450  0.56914350
   0.08051550  0.66246550  0.31914350
   0.83753450  0.08051550  0.06914350
   0.91948450  0.16246550  0.43085650
   0.16246550  0.58051550  0.68085650
   0.58051550  0.33753450  0.93085650
   0.33753450  0.91948450  0.18085650
   0.18121100  0.18121100  0.75000000
   0.81878900  0.68121100  0.00000000
   0.31878900  0.31878900  0.25000000
   0.68121100  0.81878900  0.50000000
   0.81878900  0.31878900  0.50000000
   0.18121100  0.81878900  0.25000000
   0.68121100  0.18121100  0.00000000
   0.31878900  0.68121100  0.75000000
   0.68121100  0.68121100  0.25000000
   0.31878900  0.18121100  0.50000000
   0.81878900  0.81878900  0.75000000
   0.18121100  0.31878900  0.00000000
   0.31878900  0.81878900  0.00000000
   0.68121100  0.31878900  0.75000000
   0.18121100  0.68121100  0.50000000
   0.81878900  0.18121100  0.25000000
   0.00000000  0.00000000  0.00000000
   0.00000000  0.50000000  0.25000000
   0.50000000  0.50000000  0.50000000
   0.50000000  0.00000000  0.75000000
   0.50000000  0.00000000  0.25000000
   0.50000000  0.50000000  0.00000000
   0.00000000  0.50000000  0.75000000
   0.00000000  0.00000000  0.50000000
   0.12737000  0.25000000  0.37500000
   0.75000000  0.62737000  0.62500000
   0.37263000  0.25000000  0.87500000
   0.75000000  0.87263000  0.12500000
   0.62737000  0.75000000  0.87500000
   0.25000000  0.37263000  0.62500000
   0.87263000  0.75000000  0.37500000
   0.25000000  0.12737000  0.12500000
   0.87263000  0.25000000  0.87500000
   0.25000000  0.87263000  0.62500000
   0.62737000  0.25000000  0.37500000
   0.25000000  0.62737000  0.12500000
   0.37263000  0.75000000  0.37500000
   0.75000000  0.12737000  0.62500000
   0.12737000  0.75000000  0.87500000
   0.75000000  0.37263000  0.12500000
   0.00000000  0.00000000  0.25000000
   0.00000000  0.50000000  0.50000000
   0.50000000  0.50000000  0.75000000
   0.50000000  0.00000000  0.00000000
   0.00000000  0.50000000  0.00000000
   0.00000000  0.00000000  0.75000000
   0.50000000  0.00000000  0.50000000
   0.50000000  0.50000000  0.25000000
   0.03461600  0.19451700  0.77870400
   0.80548300  0.53461600  0.02870400
   0.46538400  0.30548300  0.27870400
   0.69451700  0.96538400  0.52870400
   0.53461600  0.80548300  0.47129600
   0.30548300  0.46538400  0.22129600
   0.96538400  0.69451700  0.97129600
   0.19451700  0.03461600  0.72129600
   0.96538400  0.30548300  0.47129600
   0.19451700  0.96538400  0.22129600
   0.53461600  0.19451700  0.97129600
   0.30548300  0.53461600  0.72129600
   0.46538400  0.69451700  0.77870400
   0.69451700  0.03461600  0.02870400
   0.03461600  0.80548300  0.27870400
   0.80548300  0.46538400  0.52870400
   0.53461600  0.69451700  0.27870400
   0.30548300  0.03461600  0.52870400
   0.96538400  0.80548300  0.77870400
   0.19451700  0.46538400  0.02870400
   0.03461600  0.30548300  0.97129600
   0.80548300  0.96538400  0.72129600
   0.46538400  0.19451700  0.47129600
   0.69451700  0.53461600  0.22129600
   0.46538400  0.80548300  0.97129600
   0.69451700  0.46538400  0.72129600
   0.03461600  0.69451700  0.47129600
   0.80548300  0.03461600  0.22129600
   0.96538400  0.19451700  0.27870400
   0.19451700  0.53461600  0.52870400
   0.53461600  0.30548300  0.77870400
   0.30548300  0.96538400  0.02870400
   0.05496300  0.10244300  0.09066700
   0.89755700  0.55496300  0.34066700
   0.44503700  0.39755700  0.59066700
   0.60244300  0.94503700  0.84066700
   0.55496300  0.89755700  0.15933300
   0.39755700  0.44503700  0.90933300
   0.94503700  0.60244300  0.65933300
   0.10244300  0.05496300  0.40933300
   0.94503700  0.39755700  0.15933300
   0.10244300  0.94503700  0.90933300
   0.55496300  0.10244300  0.65933300
   0.39755700  0.55496300  0.40933300
   0.44503700  0.60244300  0.09066700
   0.60244300  0.05496300  0.34066700
   0.05496300  0.89755700  0.59066700
   0.89755700  0.44503700  0.84066700
   0.55496300  0.60244300  0.59066700
   0.39755700  0.05496300  0.84066700
   0.94503700  0.89755700  0.09066700
   0.10244300  0.44503700  0.34066700
   0.05496300  0.39755700  0.65933300
   0.89755700  0.94503700  0.40933300
   0.44503700  0.10244300  0.15933300
   0.60244300  0.55496300  0.90933300
   0.44503700  0.89755700  0.65933300
   0.60244300  0.44503700  0.40933300
   0.05496300  0.60244300  0.15933300
   0.89755700  0.05496300  0.90933300
   0.94503700  0.10244300  0.59066700
   0.10244300  0.55496300  0.84066700
   0.55496300  0.39755700  0.09066700
   0.39755700  0.94503700  0.34066700
   0.15082300  0.22322700  0.57123600
   0.77677300  0.65082300  0.82123600
   0.34917700  0.27677300  0.07123600
   0.72322700  0.84917700  0.32123600
   0.65082300  0.77677300  0.67876400
   0.27677300  0.34917700  0.42876400
   0.84917700  0.72322700  0.17876400
   0.22322700  0.15082300  0.92876400
   0.84917700  0.27677300  0.67876400
   0.22322700  0.84917700  0.42876400
[...]
     10.91097     10.79368      9.53968        -0.276232      0.090321      0.221043
      2.50982      4.32809     12.64251        -0.672343     -0.739640      0.015567
      4.20739     10.95886      0.15799         0.272594     -0.398450     -0.229586
      9.07527      4.24095      9.49742        -0.452288     -0.011610      0.174916
      2.59085      8.97246      6.45482        -0.788229      0.542058     -0.090546
     10.92280      2.32072      3.21403        -0.283124      0.093168     -0.116943
     13.18549      0.16530     12.65637         0.411237     -0.637937      0.244393
     13.18936      6.67916      3.16804         0.218288     -0.270114      0.014886
      6.63895      6.73424      6.38511        -0.256022     -0.576094     -0.147024
      6.60474     13.20724      9.48554        -0.035251      0.215934      0.008914
      6.56413      0.04436      3.10652         0.557008     -0.393775      0.517993
      6.61694      6.60752     12.61214        -0.133496      0.242266      0.526664
      0.00328      6.50167      9.60218         0.087897      0.728333     -0.509582
     13.20461     13.17409      6.34422         0.246706      0.085256      0.162861
      1.67168      3.28708      4.77002         0.468801      0.259495      0.138184
      9.91996      8.27188      7.95657         0.313350      0.757759     -0.002788
      4.91970      3.28597     11.09950         0.221328     -0.011724      0.001253
      9.94813     11.53854      1.59906        -0.172664      0.234443     -0.198736
      8.30398      9.88982     11.14293         0.012450      0.408116     -0.188779
      3.30978      4.93332      7.97335         0.533690      0.007513     -0.355454
     11.55488      9.92109      4.74900         0.132038      0.120944      0.103014
      3.30139      1.68957      1.57578        -0.241541     -0.124406     -0.289992
     11.57849      3.31450     11.08148        -0.110263      0.068986      0.246519
      3.30183     11.56158      7.94346         0.180495      0.013359     -0.097092
      8.27438      3.29549      4.74674         0.265283     -0.440233     -0.434151
      3.26555      8.30388      1.60185         0.631666     -0.174356     -0.061025
      4.93839      9.99593      4.71490        -0.245553     -0.548936      0.333502
      9.89022      1.68243      7.94082         0.315894     -0.474320     -0.191343
      1.67527      9.95340     11.10688         0.729948     -0.470855     -0.158543
      9.95169      4.94197      1.58873        -0.075156     -0.162603      0.100243
     13.20962      0.02133      3.18783         0.200711     -0.514016     -0.112175
      0.00122      6.63751      6.37057         0.235002      0.306345     -0.354453
      6.61513      6.62404      9.50028        -0.522225     -0.105160     -0.027598
      6.63449     13.22863      0.01449         0.312546      0.091048      0.061447
      0.00063      6.62019      0.03643        -0.275427      0.330832     -0.151861
      0.01275      0.00712      9.54172         0.226689      0.262213     -0.389074
      6.57882     13.22759      6.30651         0.300593     -0.043531      0.051528
      6.64310      6.63460      3.18960        -0.731591      0.042420     -0.001381
      0.53902      2.60478      9.82453        -0.422444      0.115255      0.658638
     10.62785      7.17053      0.35249         0.045325     -0.272497     -0.000801
      6.16984      3.89709      3.60478         0.083530      0.984292     -0.811796
      9.23117     12.77884      6.71645        -0.023069     -0.235227      0.226377
      7.09578     10.54609      5.96672         0.061458      0.557691      0.123344
      4.01061      6.20198      2.79894         0.180466     -0.440929      0.105262
     12.80003      9.17195     12.27826         0.329996      0.044414      0.382040
      2.61529      0.34780      9.16244        -0.083548      0.589492      0.516611
     12.73309      4.05057      6.01413         0.199458     -0.268887     -0.666791
      2.52939     12.66133      2.87493         0.014033      0.754914     -0.490499
      7.08790      2.48281     12.34227        -0.009601      0.510258      0.191349
      3.95861      7.12180      9.14989         0.460873     -0.573968     -0.169529
      6.12432      9.19436      9.89569         0.743011     -0.215838     -0.350782
      9.16283      0.38783      0.30300         0.220372      0.698627      0.493035
      0.39803     10.63004      3.46156         0.579785     -0.183898      0.897986
     10.67752      6.06374      6.67540        -0.426611      0.181795      0.579938
      7.07128      9.22441      3.52586         0.000145     -0.328068     -0.003747
      4.03070      0.35513      6.72807         0.331148      0.659919     -0.276872
     12.75895     10.71647      9.78306         0.503509     -0.093413      0.813253
      2.67588      6.12768      0.32009        -0.911387      0.391904      0.679771
      0.40592      4.01311     12.36729         0.424463      0.639346     -0.365802
     10.56376     12.77652      9.14276         0.335180      0.206019      0.373844
      6.20077      2.59350      6.04715        -0.457253     -0.387842     -0.742712
      9.18851      7.07686      2.83652        -0.202925      0.240700      0.053136
      6.20690     10.67016     12.28334        -0.041574      0.234160      0.585239
      9.18073      6.13259      9.23800         0.111449      0.137538     -0.960647
      0.47727      9.17543      5.99665        -0.198276     -0.106847     -0.467292
     10.74803      0.39139      2.77652        -0.348187      0.659129      0.292992
     12.80578      2.52007      3.60267         0.073368      0.504495     -0.447374
      2.51761      7.15580      6.64215         0.106539     -0.772047      0.554943
      7.04779      4.03761      9.94221         0.299268      0.023257     -0.267539
      3.97421     12.80039      0.50418         0.133033      0.228694     -1.158341
      0.74996      1.39170      1.13222        -0.381353      0.364765      0.399644
     11.85586      7.23491      4.33031        -0.163654      0.114402      0.258524
      5.78069      5.21160      7.57169         0.712768      0.768365     -0.049260
      8.01971     12.56865     10.63065        -0.364399     -0.050777     -0.024262
      7.36273     11.83252      1.96381        -0.460147      0.626326      0.119492
      5.15923      5.90935     11.56009         1.482532     -0.397137     -0.098169
     12.51787      7.99437      8.35246         0.023596     -0.611976      0.302816
      1.42030      0.71454      5.23494        -0.377439      0.664923     -0.163921
     12.47115      5.31831      1.96412         0.328475     -0.423135      0.105791
      1.34121     12.56635     11.57236         0.339989     -0.500389     -0.127383
      7.27053      1.41453      8.34977         0.497682     -0.776356      0.595730
      5.31509      7.28332      5.19798        -0.302220      0.219121     -0.253474
      5.80938      8.02993      1.15700         0.606451     -0.271580     -0.119175
      8.06001      0.53849      4.36984        -1.063287      0.647739     -0.472000
      0.72760     11.82346      7.41891        -0.058948     -0.063728      0.322144
     11.90644      5.95416     10.71645        -0.086003     -0.334605      0.138735
      7.41101      8.01792      7.44269         0.179274     -0.408160      0.568391
      5.26863      0.73789     10.67909        -0.458343     -0.162069      0.158011
     12.49648     11.89200      1.19667         0.623191     -0.013275     -0.647625
      1.40533      5.85482      4.33077        -0.360796     -0.341729     -0.210445
      0.62410      5.25018      8.32645         0.450952      0.731696      0.328391
     11.97085     12.50933      5.16821        -0.544788     -0.232886     -0.427959
      5.95406      1.37593      2.05589        -0.445048     -0.126908     -0.414969
      8.00839      7.34898     11.54254        -0.298422      0.229612     -0.015290
      5.83122     11.83395      8.36874         0.531429      0.169058     -0.064787
      7.95338      5.89797      5.19907        -0.012108      0.029068      0.317512
      0.78284      8.00241      2.07445        -0.285869     -0.016200     -0.240204
     11.94246      0.80337     11.43594        -0.281676     -0.060629      0.107177
     12.63005      1.36109      7.49798        -0.427031     -0.109375     -0.079691
      1.44580      7.32110     10.61516        -1.405790      0.078097      0.176126
      7.34952      5.12667      1.22756         0.028373      1.717631     -0.788668
      5.32961     12.50760      4.32113        -0.466445     -0.284899      0.164144
      2.02347      2.94212      7.38188        -0.024895      0.131977     -0.975894
     10.43776      8.65742     10.45732        -1.142715     -0.301156     -0.091204
      4.62637      3.67079      0.95770         0.071276      0.064893     -0.275396
      9.52368     11.26296      4.02138         0.377135     -0.596214      0.540458
      8.57402     10.29746      8.60939         0.104110     -0.408129      0.501763
      3.77685      4.68470      5.45534        -0.473185     -0.591256      0.070105
     11.25989      9.66680      2.23719        -0.110197     -1.072445      0.421986
      2.91181      1.98047     11.86727         0.558960     -0.171811     -0.389696
     11.31077      3.65889      8.64142        -0.866883     -0.150579     -0.042863
      2.84891     11.36379      5.39332         0.395732     -1.572084      0.110565
      8.63903      2.97202      2.35418        -0.108237     -0.601845     -0.432089
      3.68128      8.63899     11.69030        -0.416375     -0.101568      0.388869
      4.64425      9.53350      7.21207        -0.258159      0.510138     -0.398038
      9.70701      2.03063     10.47018        -1.140821      0.078135     -0.479216
      1.95669     10.23219      0.89067         0.203970      0.164440     -0.291794
     10.18318      4.60931      4.05658         0.635807      0.137443      0.460398
      8.62064      9.61806      0.95781        -0.382245     -0.667086     -0.538816
      3.69366      1.97197      4.12502        -0.898097      0.362699     -0.271300
     11.15799     10.21506      7.27746         0.514735      0.310699     -0.096556
      2.87384      4.62871     10.47161         0.317115     -0.168383     -0.003333
      1.97413      3.66712      2.16479         0.244368      0.110088      0.840609
     10.35834     11.29816     11.77476        -0.119971     -0.278676     -0.106249
      4.56102      2.99802      8.65103         0.282929     -0.180186      0.336241
      9.70751      8.61339      5.53119        -0.750324     -0.464125     -0.588417
      4.58416     10.36254      2.27128         0.367709     -0.335190     -0.177151
      9.55585      4.75151     11.84720         0.317704     -0.513469     -0.023678
      1.95157      9.52157      8.57602         0.303080      0.083997      0.406269
     10.22742      1.86997      5.46766         0.765338      1.442798      0.242806
     11.28272      2.93215      0.87504        -0.161396      0.284859      0.211496
      3.01840      8.53936      4.07383        -0.139065      1.106079     -0.181531
      8.53053      3.67711      7.27908         1.046914      0.201552     -0.022934
      3.75585     11.23611     10.45980        -1.059086      0.649235      0.286576
 -----------------------------------------------------------------------------------
    total drift:                               -0.000000     -0.000000      0.000000


--------------------------------------------------------------------------------------------------------



  ML FREE ENERGIE OF THE ION-ELECTRON SYSTEM (eV)
  ---------------------------------------------------
  free  energy ML TOTEN  =     -1375.05991712 eV

  ML energy  without entropy=    -1375.05991712  ML energy(sigma->0) =    -1375.05991712

      MLFF:  cpu time      0.1376: real time      0.1039
     LOOP+:  cpu time      0.1436: real time      0.1084
 stress matrix after NEB project (eV)
    -81.88401      0.98023      1.03202
      0.98023    -70.83256     -3.52462
      1.03202     -3.52462    -77.39239
  FORCES: max atom, RMS     1.890254    0.752094
  FORCE total and by dimension   10.421319    1.717631
  Stress total and by dimension  133.194296   81.884006
           RANDOM_SEED =         730819352             1152                0
   IONSTEP:  cpu time      0.0056: real time      0.0045

  ENERGY OF THE ELECTRON-ION-THERMOSTAT SYSTEM (eV)
  ---------------------------------------------------
% ion-electron   TOTEN  =     -1375.059917  see above
  kinetic energy EKIN   =         4.551690
  kin. lattice  EKIN_LAT=         0.000000  (temperature  184.36 K)
  nose potential ES     =        -3.548928
  nose kinetic   EPS    =         1.264955
  ---------------------------------------------------
  total energy   ETOTAL =     -1372.792199 eV



--------------------------------------- Ionic step       19  -------------------------------------------



  ML FORCE on cell =-STRESS in cart. coord. units (eV/cell)
  Direction    XX          YY          ZZ          XY          YZ          ZX
  --------------------------------------------------------------------------------------
  Total:    -80.40542   -69.22798   -75.80817     1.02332    -3.59502     0.91360
  in kB     -57.89163   -49.84391   -54.58162     0.73679    -2.58840     0.65779
  external pressure =      -54.11 kB  Pullay stress =        0.00 kB

  kinetic pressure (ideal gas correction) =      2.23 kB
  total pressure  =    -51.88 kB
  Total+kin.   -55.836     -47.531     -52.272       0.838      -3.015       0.622
  volume of cell :     2225.26
      direct lattice vectors                 reciprocal lattice vectors
    13.236070000  0.000000000  0.000000000     0.075551127  0.000000000  0.000000000
     0.000000000 13.236070000  0.000000000     0.000000000  0.075551127  0.000000000
     0.000000000  0.000000000 12.701706000     0.000000000  0.000000000  0.078729582

  length of vectors
    13.236070000 13.236070000 12.701706000     0.075551127  0.075551127  0.078729582


  POSITION                                       TOTAL-FORCE (eV/Angst) (ML)
 -----------------------------------------------------------------------------------
      0.01194      3.33669      1.57139        -0.173226     -0.441693      0.209595
      9.91775      6.58277      4.82314         0.395016      0.128724     -0.939149
      6.61648      3.30902      7.92874        -0.862578      0.647710      0.608764
      9.92634      0.01125     11.09038         0.749463     -0.554205      0.646169
      6.59857      9.93946      1.59608         0.154730      0.276653     -0.319684
      3.27992      6.62096     11.12475         0.152458      0.847266     -1.150229
      0.04163      9.90298      7.92725        -0.492942      0.215263     -0.468895
      3.27669     13.20370      4.70781         0.186985      0.352938      0.978978
      3.31299      0.01296     11.13006        -0.328882     -0.429195     -0.011172
      3.32727      6.59585      4.78504         0.375719     -0.245710     -0.592849
      9.95362     13.20755      4.80001         0.030144     -1.045721     -0.213195
      9.94790      6.66750     11.09686         0.461240     -0.164738      0.692268
      6.64185      9.92022      7.92211        -0.630136     -0.057532      0.070488
     13.23380      9.94434      1.60233        -0.409117     -0.136268     -0.561014
      0.02096      3.34627      7.90058         0.051370     -1.174490      0.586319
      6.60569      3.29829      1.58579         0.182441     -1.122076      0.483701
      1.03852      2.31043     11.78974         0.456677     -0.506966     -0.096390
     10.88343      7.79847      2.13543         0.401846     -0.024155      0.362149
      5.77702      4.50753      5.38472        -1.082497      0.247657      0.547020
      8.75378     12.10705      8.89531        -0.137121      0.023816     -0.761349
      7.55831     11.01661      4.14320         0.811384      0.552426     -0.345207
      4.49992      5.55117      0.59149         0.232397     -0.024127      1.127393
     12.29158      8.72160     10.27687        -0.180972     -0.089089      0.201393
      2.04625      1.02987      7.14132         0.101284      0.026769      0.143836
     12.10210      4.55524      4.18523         0.023795     -0.239260     -0.268262
      2.10084     12.04731      0.91946        -0.012465      0.719832      0.006360
      7.78260      2.15364     10.31234        -0.289984      0.069889      0.424530
      4.29664      7.74051      7.16499         0.593874     -0.282614      0.613849
      5.51220      8.91344     11.77677        -0.084232     -0.113518      0.093423
      8.87028      0.99851      2.28790        -0.197956      0.340245      0.070870
      0.98447     10.94633      5.55976         0.399823      0.653265     -0.273438
     11.09849      5.48272      8.58565         0.062754      0.266319      0.118284
      7.82485      8.77552      5.43661        -0.422747      0.079663      0.339346
      4.50560      1.17222      8.65851        -0.175801     -0.681455     -0.093251
     12.34624     11.02579     11.89865        -0.894138      0.467073     -0.319784
      2.20198      5.49110      2.33636         0.019249      0.402281     -0.093903
      0.99095      4.48718     10.43393         0.351427     -0.177512     -0.082755
     10.94692     12.06003      7.46772         0.097123      0.064686     -0.593108
      5.40390      2.34433      4.08056         0.705541     -0.662001      0.151097
      8.76498      7.72908      0.92194        -0.001086      0.041410     -0.193986
      5.57378     11.24121     10.39465         0.178065     -0.478034     -0.140349
      8.79765      5.53101      7.20009        -0.157509      0.015797      0.058260
      1.13610      8.80849      3.95371        -0.081917     -0.331736      0.530885
     11.13600      1.12470      0.91550        -0.210455     -0.432774     -0.095534
     12.20647      2.08000      5.43825        -0.215217      0.034794      0.471788
      2.12396      7.55373      8.66902        -0.088570      0.694510      0.023122
      7.71163      4.47884     11.88195         0.048200     -0.267319     -0.169650
      4.38077     12.22532      2.28569         0.140019     -0.261420      0.238427
      2.45950      2.44253      9.44089        -0.438339     -0.177613     -0.186023
     10.81583      9.03854     12.53266         0.475082      0.137423     -0.170340
      4.12091      4.20489      3.06757         0.574223      0.475859      0.009548
      9.13121     10.84306      6.31993        -0.387389     -0.044175      0.259346
     10.81770      4.16803      6.35448         0.190757      0.023608     -0.017858
      2.33800     10.84154      3.28436         0.023764      0.051512      0.149798
      9.00419      2.33739      0.02699        -0.074587     -0.028306     -0.089151
      4.23079      9.04404      9.68468        -0.147130     -0.191305     -0.110260
      9.01556      9.02352      3.26251        -0.196411      0.194510     -0.309165
      4.24903      2.29306      6.29931        -0.090459      0.209953      0.074329
     10.91361     10.79165      9.54315        -0.284158      0.094237      0.221219
      2.51038      4.32807     12.63832        -0.680957     -0.734792      0.022883
      4.21017     10.96304      0.16709         0.261834     -0.392478     -0.241764
      9.07397      4.24275      9.49756        -0.447671     -0.016201      0.171182
      2.59558      8.97505      6.46193        -0.794267      0.533894     -0.102938
     10.92597      2.31511      3.21585        -0.283689      0.117931     -0.124275
     13.18638      0.16974     12.65657         0.412755     -0.630148      0.227260
     13.18917      6.68068      3.16750         0.198963     -0.273288      0.021968