<?xml version="1.0" encoding="ISO-8859-1"?>
<modeling>
 <generator>
  <i name="program" type="string">vasp </i>
  <i name="version" type="string">6.4.0  </i>
  <i name="subversion" type="string">14Feb23 (build Mar 16 2023 23:21:51) complex                          parallel </i>
  <i name="platform" type="string">LinuxNV_CrayMPICH </i>
  <i name="date" type="string">2023 07 27 </i>
  <i name="time" type="string">08:36:19 </i>
 </generator>
 <incar>
  <i type="string" name="SYSTEM">AIMD-MLFF-ON-THE-FLY</i>
  <i type="int" name="ISTART">     0</i>
  <i type="int" name="ICHARG">     2</i>
  <i type="int" name="NELM">    40</i>
  <i name="EDIFF">      0.00001000</i>
  <i type="int" name="NSW">  3000</i>
  <i type="int" name="ISIF">     2</i>
  <i type="int" name="ISYM">     0</i>
  <i name="ENCUT">    400.00000000</i>
  <i name="POTIM">      1.00000000</i>
  <i name="TEBEG">    300.00000000</i>
  <i name="SMASS">      0.00000000</i>
  <i type="string" name="LREAL">Auto</i>
  <i type="int" name="ISMEAR">     0</i>
  <i name="SIGMA">      0.10000000</i>
  <i type="logical" name="LWAVE"> F  </i>
  <i type="logical" name="LCHARG"> F  </i>
  <i type="logical" name="LVTOT"> F  </i>
  <i type="logical" name="LVHAR"> F  </i>
  <i type="logical" name="LELF"> F  </i>
  <i type="string" name="GGA">PE</i>
  <i type="logical" name="ML_LMLFF"> T  </i>
  <i type="int" name="ML_ISTART">     0</i>
  <i type="int" name="MDALGO">     2</i>
 </incar>
 <primitive_cell>
  <structure name="primitive_cell" >
   <crystal>
    <varray name="basis" >
     <v>      13.23607000       0.00000000       0.00000000 </v>
     <v>       0.00000000      13.23607000       0.00000000 </v>
     <v>       0.00000000       0.00000000      12.70170600 </v>
    </varray>
    <i name="volume">   2225.25695306 </i>
    <varray name="rec_basis" >
     <v>       0.07555113       0.00000000       0.00000000 </v>
     <v>       0.00000000       0.07555113       0.00000000 </v>
     <v>       0.00000000       0.00000000       0.07872958 </v>
    </varray>
   </crystal>
   <varray name="positions" >
    <v>       0.00000000       0.25000000       0.12500000 </v>
    <v>       0.75000000       0.50000000       0.37500000 </v>
    <v>       0.50000000       0.25000000       0.62500000 </v>
    <v>       0.75000000       0.00000000       0.87500000 </v>
    <v>       0.50000000       0.75000000       0.12500000 </v>
    <v>       0.25000000       0.50000000       0.87500000 </v>
    <v>       0.00000000       0.75000000       0.62500000 </v>
    <v>       0.25000000       0.00000000       0.37500000 </v>
    <v>       0.25000000       0.00000000       0.87500000 </v>
    <v>       0.25000000       0.50000000       0.37500000 </v>
    <v>       0.75000000       0.00000000       0.37500000 </v>
    <v>       0.75000000       0.50000000       0.87500000 </v>
    <v>       0.50000000       0.75000000       0.62500000 </v>
    <v>       0.00000000       0.75000000       0.12500000 </v>
    <v>       0.00000000       0.25000000       0.62500000 </v>
    <v>       0.50000000       0.25000000       0.12500000 </v>
    <v>       0.08051550       0.16246550       0.93085650 </v>
    <v>       0.83753450       0.58051550       0.18085650 </v>
    <v>       0.41948450       0.33753450       0.43085650 </v>
    <v>       0.66246550       0.91948450       0.68085650 </v>
    <v>       0.58051550       0.83753450       0.31914350 </v>
    <v>       0.33753450       0.41948450       0.06914350 </v>
    <v>       0.91948450       0.66246550       0.81914350 </v>
    <v>       0.16246550       0.08051550       0.56914350 </v>
    <v>       0.91948450       0.33753450       0.31914350 </v>
    <v>       0.16246550       0.91948450       0.06914350 </v>
    <v>       0.58051550       0.16246550       0.81914350 </v>
    <v>       0.33753450       0.58051550       0.56914350 </v>
    <v>       0.41948450       0.66246550       0.93085650 </v>
    <v>       0.66246550       0.08051550       0.18085650 </v>
    <v>       0.08051550       0.83753450       0.43085650 </v>
    <v>       0.83753450       0.41948450       0.68085650 </v>
    <v>       0.58051550       0.66246550       0.43085650 </v>
    <v>       0.33753450       0.08051550       0.68085650 </v>
    <v>       0.91948450       0.83753450       0.93085650 </v>
    <v>       0.16246550       0.41948450       0.18085650 </v>
    <v>       0.08051550       0.33753450       0.81914350 </v>
    <v>       0.83753450       0.91948450       0.56914350 </v>
    <v>       0.41948450       0.16246550       0.31914350 </v>
    <v>       0.66246550       0.58051550       0.06914350 </v>
    <v>       0.41948450       0.83753450       0.81914350 </v>
    <v>       0.66246550       0.41948450       0.56914350 </v>
    <v>       0.08051550       0.66246550       0.31914350 </v>
    <v>       0.83753450       0.08051550       0.06914350 </v>
    <v>       0.91948450       0.16246550       0.43085650 </v>
    <v>       0.16246550       0.58051550       0.68085650 </v>
    <v>       0.58051550       0.33753450       0.93085650 </v>
    <v>       0.33753450       0.91948450       0.18085650 </v>
    <v>       0.18121100       0.18121100       0.75000000 </v>
    <v>       0.81878900       0.68121100       0.00000000 </v>
    <v>       0.31878900       0.31878900       0.25000000 </v>
    <v>       0.68121100       0.81878900       0.50000000 </v>
    <v>       0.81878900       0.31878900       0.50000000 </v>
    <v>       0.18121100       0.81878900       0.25000000 </v>
    <v>       0.68121100       0.18121100       0.00000000 </v>
    <v>       0.31878900       0.68121100       0.75000000 </v>
    <v>       0.68121100       0.68121100       0.25000000 </v>
    <v>       0.31878900       0.18121100       0.50000000 </v>
    <v>       0.81878900       0.81878900       0.75000000 </v>
    <v>       0.18121100       0.31878900       0.00000000 </v>
    <v>       0.31878900       0.81878900       0.00000000 </v>
    <v>       0.68121100       0.31878900       0.75000000 </v>
    <v>       0.18121100       0.68121100       0.50000000 </v>
    <v>       0.81878900       0.18121100       0.25000000 </v>
    <v>       0.00000000       0.00000000       0.00000000 </v>
    <v>       0.00000000       0.50000000       0.25000000 </v>
    <v>       0.50000000       0.50000000       0.50000000 </v>
    <v>       0.50000000       0.00000000       0.75000000 </v>
    <v>       0.50000000       0.00000000       0.25000000 </v>
    <v>       0.50000000       0.50000000       0.00000000 </v>
    <v>       0.00000000       0.50000000       0.75000000 </v>
    <v>       0.00000000       0.00000000       0.50000000 </v>
    <v>       0.12737000       0.25000000       0.37500000 </v>
    <v>       0.75000000       0.62737000       0.62500000 </v>
    <v>       0.37263000       0.25000000       0.87500000 </v>
    <v>       0.75000000       0.87263000       0.12500000 </v>
    <v>       0.62737000       0.75000000       0.87500000 </v>
    <v>       0.25000000       0.37263000       0.62500000 </v>
    <v>       0.87263000       0.75000000       0.37500000 </v>
    <v>       0.25000000       0.12737000       0.12500000 </v>
    <v>       0.87263000       0.25000000       0.87500000 </v>
    <v>       0.25000000       0.87263000       0.62500000 </v>
    <v>       0.62737000       0.25000000       0.37500000 </v>
    <v>       0.25000000       0.62737000       0.12500000 </v>
    <v>       0.37263000       0.75000000       0.37500000 </v>
    <v>       0.75000000       0.12737000       0.62500000 </v>
    <v>       0.12737000       0.75000000       0.87500000 </v>
    <v>       0.75000000       0.37263000       0.12500000 </v>
    <v>       0.00000000       0.00000000       0.25000000 </v>
    <v>       0.00000000       0.50000000       0.50000000 </v>
    <v>       0.50000000       0.50000000       0.75000000 </v>
    <v>       0.50000000       0.00000000       0.00000000 </v>
    <v>       0.00000000       0.50000000       0.00000000 </v>
    <v>       0.00000000       0.00000000       0.75000000 </v>
    <v>       0.50000000       0.00000000       0.50000000 </v>
    <v>       0.50000000       0.50000000       0.25000000 </v>
    <v>       0.03461600       0.19451700       0.77870400 </v>
    <v>       0.80548300       0.53461600       0.02870400 </v>
    <v>       0.46538400       0.30548300       0.27870400 </v>
    <v>       0.69451700       0.96538400       0.52870400 </v>
    <v>       0.53461600       0.80548300       0.47129600 </v>
    <v>       0.30548300       0.46538400       0.22129600 </v>
    <v>       0.96538400       0.69451700       0.97129600 </v>
    <v>       0.19451700       0.03461600       0.72129600 </v>
    <v>       0.96538400       0.30548300       0.47129600 </v>
    <v>       0.19451700       0.96538400       0.22129600 </v>
    <v>       0.53461600       0.19451700       0.97129600 </v>
    <v>       0.30548300       0.53461600       0.72129600 </v>
    <v>       0.46538400       0.69451700       0.77870400 </v>
    <v>       0.69451700       0.03461600       0.02870400 </v>
    <v>       0.03461600       0.80548300       0.27870400 </v>
    <v>       0.80548300       0.46538400       0.52870400 </v>
    <v>       0.53461600       0.69451700       0.27870400 </v>
    <v>       0.30548300       0.03461600       0.52870400 </v>
    <v>       0.96538400       0.80548300       0.77870400 </v>
    <v>       0.19451700       0.46538400       0.02870400 </v>
    <v>       0.03461600       0.30548300       0.97129600 </v>
    <v>       0.80548300       0.96538400       0.72129600 </v>
    <v>       0.46538400       0.19451700       0.47129600 </v>
    <v>       0.69451700       0.53461600       0.22129600 </v>
    <v>       0.46538400       0.80548300       0.97129600 </v>
    <v>       0.69451700       0.46538400       0.72129600 </v>
    <v>       0.03461600       0.69451700       0.47129600 </v>
    <v>       0.80548300       0.03461600       0.22129600 </v>
    <v>       0.96538400       0.19451700       0.27870400 </v>
    <v>       0.19451700       0.53461600       0.52870400 </v>
    <v>       0.53461600       0.30548300       0.77870400 </v>
    <v>       0.30548300       0.96538400       0.02870400 </v>
    <v>       0.05496300       0.10244300       0.09066700 </v>
    <v>       0.89755700       0.55496300       0.34066700 </v>
    <v>       0.44503700       0.39755700       0.59066700 </v>
    <v>       0.60244300       0.94503700       0.84066700 </v>
    <v>       0.55496300       0.89755700       0.15933300 </v>
    <v>       0.39755700       0.44503700       0.90933300 </v>
    <v>       0.94503700       0.60244300       0.65933300 </v>
    <v>       0.10244300       0.05496300       0.40933300 </v>
    <v>       0.94503700       0.39755700       0.15933300 </v>
    <v>       0.10244300       0.94503700       0.90933300 </v>
    <v>       0.55496300       0.10244300       0.65933300 </v>
    <v>       0.39755700       0.55496300       0.40933300 </v>
    <v>       0.44503700       0.60244300       0.09066700 </v>
    <v>       0.60244300       0.05496300       0.34066700 </v>
    <v>       0.05496300       0.89755700       0.59066700 </v>
    <v>       0.89755700       0.44503700       0.84066700 </v>
    <v>       0.55496300       0.60244300       0.59066700 </v>
    <v>       0.39755700       0.05496300       0.84066700 </v>
    <v>       0.94503700       0.89755700       0.09066700 </v>
    <v>       0.10244300       0.44503700       0.34066700 </v>
    <v>       0.05496300       0.39755700       0.65933300 </v>
    <v>       0.89755700       0.94503700       0.40933300 </v>
    <v>       0.44503700       0.10244300       0.15933300 </v>
    <v>       0.60244300       0.55496300       0.90933300 </v>
    <v>       0.44503700       0.89755700       0.65933300 </v>
    <v>       0.60244300       0.44503700       0.40933300 </v>
    <v>       0.05496300       0.60244300       0.15933300 </v>
    <v>       0.89755700       0.05496300       0.90933300 </v>
    <v>       0.94503700       0.10244300       0.59066700 </v>
    <v>       0.10244300       0.55496300       0.84066700 </v>
    <v>       0.55496300       0.39755700       0.09066700 </v>
    <v>       0.39755700       0.94503700       0.34066700 </v>
    <v>       0.15082300       0.22322700       0.57123600 </v>
    <v>       0.77677300       0.65082300       0.82123600 </v>
    <v>       0.34917700       0.27677300       0.07123600 </v>
    <v>       0.72322700       0.84917700       0.32123600 </v>
    <v>       0.65082300       0.77677300       0.67876400 </v>
    <v>       0.27677300       0.34917700       0.42876400 </v>
    <v>       0.84917700       0.72322700       0.17876400 </v>
    <v>       0.22322700       0.15082300       0.92876400 </v>
    <v>       0.84917700       0.27677300       0.67876400 </v>
    <v>       0.22322700       0.84917700       0.42876400 </v>
    <v>       0.65082300       0.22322700       0.17876400 </v>
    <v>       0.27677300       0.65082300       0.92876400 </v>
    <v>       0.34917700       0.72322700       0.57123600 </v>
    <v>       0.72322700       0.15082300       0.82123600 </v>
    <v>       0.15082300       0.77677300       0.07123600 </v>
    <v>       0.77677300       0.34917700       0.32123600 </v>
    <v>       0.65082300       0.72322700       0.07123600 </v>
    <v>       0.27677300       0.15082300       0.32123600 </v>
    <v>       0.84917700       0.77677300       0.57123600 </v>
    <v>       0.22322700       0.34917700       0.82123600 </v>
    <v>       0.15082300       0.27677300       0.17876400 </v>
    <v>       0.77677300       0.84917700       0.92876400 </v>
    <v>       0.34917700       0.22322700       0.67876400 </v>
    <v>       0.72322700       0.65082300       0.42876400 </v>
    <v>       0.34917700       0.77677300       0.17876400 </v>
    <v>       0.72322700       0.34917700       0.92876400 </v>
    <v>       0.15082300       0.72322700       0.67876400 </v>
    <v>       0.77677300       0.15082300       0.42876400 </v>
    <v>       0.84917700       0.22322700       0.07123600 </v>
    <v>       0.22322700       0.65082300       0.32123600 </v>
    <v>       0.65082300       0.27677300       0.57123600 </v>
    <v>       0.27677300       0.84917700       0.82123600 </v>
   </varray>
  </structure>
  <varray name="primitive_index" >
   <v type="int" >        1 </v>
   <v type="int" >        2 </v>
   <v type="int" >        3 </v>
   <v type="int" >        4 </v>
   <v type="int" >        5 </v>
   <v type="int" >        6 </v>
   <v type="int" >        7 </v>
   <v type="int" >        8 </v>
   <v type="int" >        9 </v>
   <v type="int" >       10 </v>
   <v type="int" >       11 </v>
   <v type="int" >       12 </v>
   <v type="int" >       13 </v>
   <v type="int" >       14 </v>
   <v type="int" >       15 </v>
   <v type="int" >       16 </v>
   <v type="int" >       17 </v>
   <v type="int" >       18 </v>
   <v type="int" >       19 </v>
   <v type="int" >       20 </v>
   <v type="int" >       21 </v>
   <v type="int" >       22 </v>
   <v type="int" >       23 </v>
   <v type="int" >       24 </v>
   <v type="int" >       25 </v>
   <v type="int" >       26 </v>
   <v type="int" >       27 </v>
   <v type="int" >       28 </v>
   <v type="int" >       29 </v>
   <v type="int" >       30 </v>
   <v type="int" >       31 </v>
   <v type="int" >       32 </v>
   <v type="int" >       33 </v>
   <v type="int" >       34 </v>
   <v type="int" >       35 </v>
   <v type="int" >       36 </v>
   <v type="int" >       37 </v>
   <v type="int" >       38 </v>
   <v type="int" >       39 </v>
   <v type="int" >       40 </v>
   <v type="int" >       41 </v>
   <v type="int" >       42 </v>
   <v type="int" >       43 </v>
   <v type="int" >       44 </v>
   <v type="int" >       45 </v>
   <v type="int" >       46 </v>
   <v type="int" >       47 </v>
   <v type="int" >       48 </v>
   <v type="int" >       49 </v>
   <v type="int" >       50 </v>
   <v type="int" >       51 </v>
   <v type="int" >       52 </v>
   <v type="int" >       53 </v>
   <v type="int" >       54 </v>
   <v type="int" >       55 </v>
   <v type="int" >       56 </v>
   <v type="int" >       57 </v>
   <v type="int" >       58 </v>
   <v type="int" >       59 </v>
   <v type="int" >       60 </v>
   <v type="int" >       61 </v>
   <v type="int" >       62 </v>
   <v type="int" >       63 </v>
   <v type="int" >       64 </v>
   <v type="int" >       65 </v>
   <v type="int" >       66 </v>
   <v type="int" >       67 </v>
   <v type="int" >       68 </v>
   <v type="int" >       69 </v>
   <v type="int" >       70 </v>
   <v type="int" >       71 </v>
   <v type="int" >       72 </v>
   <v type="int" >       73 </v>
   <v type="int" >       74 </v>
   <v type="int" >       75 </v>
   <v type="int" >       76 </v>
   <v type="int" >       77 </v>
   <v type="int" >       78 </v>
   <v type="int" >       79 </v>
   <v type="int" >       80 </v>
   <v type="int" >       81 </v>
   <v type="int" >       82 </v>
   <v type="int" >       83 </v>
   <v type="int" >       84 </v>
   <v type="int" >       85 </v>
   <v type="int" >       86 </v>
   <v type="int" >       87 </v>
   <v type="int" >       88 </v>
   <v type="int" >       89 </v>
   <v type="int" >       90 </v>
   <v type="int" >       91 </v>
   <v type="int" >       92 </v>
   <v type="int" >       93 </v>
   <v type="int" >       94 </v>
   <v type="int" >       95 </v>
   <v type="int" >       96 </v>
   <v type="int" >       97 </v>
   <v type="int" >       98 </v>
   <v type="int" >       99 </v>
   <v type="int" >      100 </v>
   <v type="int" >      101 </v>
   <v type="int" >      102 </v>
   <v type="int" >      103 </v>
   <v type="int" >      104 </v>
   <v type="int" >      105 </v>
   <v type="int" >      106 </v>
   <v type="int" >      107 </v>
   <v type="int" >      108 </v>
   <v type="int" >      109 </v>
   <v type="int" >      110 </v>
   <v type="int" >      111 </v>
   <v type="int" >      112 </v>
   <v type="int" >      113 </v>
   <v type="int" >      114 </v>
   <v type="int" >      115 </v>
   <v type="int" >      116 </v>
   <v type="int" >      117 </v>
   <v type="int" >      118 </v>
   <v type="int" >      119 </v>
   <v type="int" >      120 </v>
   <v type="int" >      121 </v>
   <v type="int" >      122 </v>
   <v type="int" >      123 </v>
   <v type="int" >      124 </v>
   <v type="int" >      125 </v>
   <v type="int" >      126 </v>
   <v type="int" >      127 </v>
   <v type="int" >      128 </v>
   <v type="int" >      129 </v>
   <v type="int" >      130 </v>
   <v type="int" >      131 </v>
   <v type="int" >      132 </v>
   <v type="int" >      133 </v>
   <v type="int" >      134 </v>
   <v type="int" >      135 </v>
   <v type="int" >      136 </v>
   <v type="int" >      137 </v>
   <v type="int" >      138 </v>
   <v type="int" >      139 </v>
   <v type="int" >      140 </v>
   <v type="int" >      141 </v>
   <v type="int" >      142 </v>
   <v type="int" >      143 </v>
   <v type="int" >      144 </v>
   <v type="int" >      145 </v>
   <v type="int" >      146 </v>
   <v type="int" >      147 </v>
   <v type="int" >      148 </v>
   <v type="int" >      149 </v>
   <v type="int" >      150 </v>
   <v type="int" >      151 </v>
   <v type="int" >      152 </v>
   <v type="int" >      153 </v>
   <v type="int" >      154 </v>
   <v type="int" >      155 </v>
   <v type="int" >      156 </v>
   <v type="int" >      157 </v>
   <v type="int" >      158 </v>
   <v type="int" >      159 </v>
   <v type="int" >      160 </v>
   <v type="int" >      161 </v>
   <v type="int" >      162 </v>
   <v type="int" >      163 </v>
   <v type="int" >      164 </v>
   <v type="int" >      165 </v>
   <v type="int" >      166 </v>
   <v type="int" >      167 </v>
   <v type="int" >      168 </v>
   <v type="int" >      169 </v>
   <v type="int" >      170 </v>
   <v type="int" >      171 </v>
   <v type="int" >      172 </v>
   <v type="int" >      173 </v>
   <v type="int" >      174 </v>
   <v type="int" >      175 </v>
   <v type="int" >      176 </v>
   <v type="int" >      177 </v>
   <v type="int" >      178 </v>
   <v type="int" >      179 </v>
   <v type="int" >      180 </v>
   <v type="int" >      181 </v>
   <v type="int" >      182 </v>
   <v type="int" >      183 </v>
   <v type="int" >      184 </v>
   <v type="int" >      185 </v>
   <v type="int" >      186 </v>
   <v type="int" >      187 </v>
   <v type="int" >      188 </v>
   <v type="int" >      189 </v>
   <v type="int" >      190 </v>
   <v type="int" >      191 </v>
   <v type="int" >      192 </v>
  </varray>
 </primitive_cell>
 <kpoints>
  <generation param="Gamma">
   <v type="int" name="divisions">       1        1        1 </v>
   <v name="usershift">      0.00000000       0.00000000       0.00000000 </v>
   <v name="genvec1">      1.00000000       0.00000000       0.00000000 </v>
   <v name="genvec2">      0.00000000       1.00000000       0.00000000 </v>
   <v name="genvec3">      0.00000000       0.00000000       1.00000000 </v>
   <v name="shift">      0.00000000       0.00000000       0.00000000 </v>
  </generation>
  <varray name="kpointlist" >
   <v>       0.00000000       0.00000000       0.00000000 </v>
  </varray>
  <varray name="weights" >
   <v>       1.00000000 </v>
  </varray>
 </kpoints>
 <parameters>
  <separator name="general" >
   <i type="string" name="SYSTEM">AIMD-MLFF-ON-THE-FLY</i>
   <i type="logical" name="LCOMPAT"> F  </i>
  </separator>
  <separator name="electronic" >
   <i type="string" name="PREC">normal</i>
   <i name="ENMAX">    400.00000000</i>
   <i name="ENAUG">    628.94500000</i>
   <i name="EDIFF">      0.00001000</i>
   <i type="int" name="IALGO">    38</i>
   <i type="int" name="IWAVPR">    11</i>
   <i type="int" name="NBANDS">   768</i>
   <i type="int" name="NBANDSLOW">    -1</i>
   <i type="int" name="NBANDSHIGH">    -1</i>
   <i name="NELECT">   1200.00000000</i>
   <i type="int" name="TURBO">     0</i>
   <i type="int" name="IRESTART">     0</i>
   <i type="int" name="NREBOOT">     0</i>
   <i type="int" name="NMIN">     0</i>
   <i name="EREF">      0.00000000</i>
   <separator name="electronic smearing" >
    <i type="int" name="ISMEAR">     0</i>
    <i name="SIGMA">      0.10000000</i>
    <i name="KSPACING">      0.50000000</i>
    <i type="logical" name="KGAMMA"> T  </i>
    <i type="logical" name="KBLOWUP"> T  </i>
   </separator>
   <separator name="electronic projectors" >
    <i type="logical" name="LREAL"> T  </i>
    <v name="ROPT">     -0.00050000     -0.00050000     -0.00050000     -0.00050000</v>
    <i type="int" name="LMAXPAW">  -100</i>
    <i type="int" name="LMAXMIX">     2</i>
    <i type="logical" name="NLSPLINE"> F  </i>
   </separator>
   <separator name="electronic startup" >
    <i type="int" name="ISTART">     0</i>
    <i type="int" name="ICHARG">     2</i>
    <i type="int" name="INIWAV">     1</i>
   </separator>
   <separator name="electronic spin" >
    <i type="int" name="ISPIN">     1</i>
    <i type="logical" name="LNONCOLLINEAR"> F  </i>
    <v name="MAGMOM">      1.00000000      1.00000000      1.00000000      1.00000000      1.00000000      1.00000000      1.00000000      1.00000000      1.00000000      1.00000000      1.00000000      1.00000000      1.00000000      1.00000000      1.00000000      1.00000000      1.00000000      1.00000000      1.00000000      1.00000000
      1.00000000      1.00000000      1.00000000      1.00000000      1.00000000      1.00000000      1.00000000      1.00000000      1.00000000      1.00000000      1.00000000      1.00000000      1.00000000      1.00000000      1.00000000      1.00000000      1.00000000      1.00000000      1.00000000      1.00000000
      1.00000000      1.00000000      1.00000000      1.00000000      1.00000000      1.00000000      1.00000000      1.00000000      1.00000000      1.00000000      1.00000000      1.00000000      1.00000000      1.00000000      1.00000000      1.00000000      1.00000000      1.00000000      1.00000000      1.00000000
      1.00000000      1.00000000      1.00000000      1.00000000      1.00000000      1.00000000      1.00000000      1.00000000      1.00000000      1.00000000      1.00000000      1.00000000      1.00000000      1.00000000      1.00000000      1.00000000      1.00000000      1.00000000      1.00000000      1.00000000
      1.00000000      1.00000000      1.00000000      1.00000000      1.00000000      1.00000000      1.00000000      1.00000000      1.00000000      1.00000000      1.00000000      1.00000000      1.00000000      1.00000000      1.00000000      1.00000000      1.00000000      1.00000000      1.00000000      1.00000000
      1.00000000      1.00000000      1.00000000      1.00000000      1.00000000      1.00000000      1.00000000      1.00000000      1.00000000      1.00000000      1.00000000      1.00000000      1.00000000      1.00000000      1.00000000      1.00000000      1.00000000      1.00000000      1.00000000      1.00000000
      1.00000000      1.00000000      1.00000000      1.00000000      1.00000000      1.00000000      1.00000000      1.00000000      1.00000000      1.00000000      1.00000000      1.00000000      1.00000000      1.00000000      1.00000000      1.00000000      1.00000000      1.00000000      1.00000000      1.00000000
      1.00000000      1.00000000      1.00000000      1.00000000      1.00000000      1.00000000      1.00000000      1.00000000      1.00000000      1.00000000      1.00000000      1.00000000      1.00000000      1.00000000      1.00000000      1.00000000      1.00000000      1.00000000      1.00000000      1.00000000
      1.00000000      1.00000000      1.00000000      1.00000000      1.00000000      1.00000000      1.00000000      1.00000000      1.00000000      1.00000000      1.00000000      1.00000000      1.00000000      1.00000000      1.00000000      1.00000000      1.00000000      1.00000000      1.00000000      1.00000000
      1.00000000      1.00000000      1.00000000      1.00000000      1.00000000      1.00000000      1.00000000      1.00000000      1.00000000      1.00000000      1.00000000      1.00000000</v>
    <i name="NUPDOWN">     -1.00000000</i>
    <i type="logical" name="LSORBIT"> F  </i>
    <v name="SAXIS">      0.00000000      0.00000000      1.00000000</v>
    <i type="logical" name="LSPIRAL"> F  </i>
    <v name="QSPIRAL">      0.00000000      0.00000000      0.00000000</v>
    <i type="logical" name="LZEROZ"> F  </i>
   </separator>
   <separator name="electronic exchange-correlation" >
    <i type="logical" name="LASPH"> F  </i>
    <i type="logical" name="LMETAGGA"> F  </i>
   </separator>
   <separator name="electronic convergence" >
    <i type="int" name="NELM">    40</i>
    <i type="int" name="NELMDL">    -5</i>
    <i type="int" name="NELMIN">     2</i>
    <i name="ENINI">    400.00000000</i>
    <separator name="electronic convergence detail" >
     <i type="logical" name="LDIAG"> T  </i>
     <i type="logical" name="LSUBROT"> F  </i>
     <i name="WEIMIN">      0.00100000</i>
     <i name="EBREAK">      0.00000000</i>
     <i name="DEPER">      0.30000000</i>
     <i type="int" name="NRMM">     4</i>
     <i name="TIME">      0.40000000</i>
    </separator>
   </separator>
   <separator name="electronic mixer" >
    <i name="AMIX">      0.40000000</i>
    <i name="BMIX">      1.00000000</i>
    <i name="AMIN">      0.10000000</i>
    <i name="AMIX_MAG">      1.60000000</i>
    <i name="BMIX_MAG">      1.00000000</i>
    <separator name="electronic mixer details" >
     <i type="int" name="IMIX">     4</i>
     <i type="logical" name="MIXFIRST"> F  </i>
     <i type="int" name="MAXMIX">   -45</i>
     <i name="WC">    100.00000000</i>
     <i type="int" name="INIMIX">     1</i>
     <i type="int" name="MIXPRE">     1</i>
     <i type="int" name="MREMOVE">     5</i>
    </separator>
   </separator>
   <separator name="electronic dipolcorrection" >
    <i type="logical" name="LDIPOL"> F  </i>
    <i type="logical" name="LMONO"> F  </i>
    <i type="int" name="IDIPOL">     0</i>
    <i name="EPSILON">      1.00000000</i>
    <v name="DIPOL">   -100.00000000   -100.00000000   -100.00000000</v>
    <i name="EFIELD">      0.00000000</i>
   </separator>
  </separator>
  <separator name="grids" >
   <i type="int" name="NGX">    70</i>
   <i type="int" name="NGY">    70</i>
   <i type="int" name="NGZ">    64</i>
   <i type="int" name="NGXF">   140</i>
   <i type="int" name="NGYF">   140</i>
   <i type="int" name="NGZF">   128</i>
   <i type="logical" name="ADDGRID"> F  </i>
  </separator>
  <separator name="ionic" >
   <i type="int" name="NSW">  3000</i>
   <i type="int" name="IBRION">     0</i>
   <i type="int" name="MDALGO">     2</i>
   <i type="int" name="ISIF">     2</i>
   <i name="PSTRESS">      0.00000000</i>
   <i name="EDIFFG">      0.00010000</i>
   <i type="int" name="NFREE">     0</i>
   <i name="POTIM">      1.00000000</i>
   <i name="SMASS">      0.06612790</i>
   <i name="SCALEE">      1.00000000</i>
  </separator>
  <separator name="ionic md" >
   <i name="TEBEG">    300.00000000</i>
   <i name="TEEND">    300.00000000</i>
   <i type="int" name="NBLOCK">     1</i>
   <i type="int" name="KBLOCK">  3000</i>
   <i type="int" name="NPACO">   256</i>
   <i name="APACO">     10.00000000</i>
  </separator>
  <separator name="symmetry" >
   <i type="int" name="ISYM">     0</i>
   <i name="SYMPREC">      0.00001000</i>
  </separator>
  <separator name="dos" >
   <i type="int" name="LORBIT">     0</i>
   <v name="RWIGS">     -1.00000000     -1.00000000     -1.00000000     -1.00000000</v>
   <i type="int" name="NEDOS">   301</i>
   <i name="EMIN">     10.00000000</i>
   <i name="EMAX">    -10.00000000</i>
   <i name="EFERMI">      0.00000000</i>
  </separator>
  <separator name="writing" >
   <i type="int" name="NWRITE">     2</i>
   <i type="logical" name="LWAVE"> F  </i>
   <i type="logical" name="LDOWNSAMPLE"> F  </i>
   <i type="logical" name="LCHARG"> F  </i>
   <i type="logical" name="LPARD"> F  </i>
   <i type="logical" name="LVTOT"> F  </i>
   <i type="logical" name="LVHAR"> F  </i>
   <i type="logical" name="LELF"> F  </i>
   <i type="logical" name="LOPTICS"> F  </i>
   <v name="STM">      0.00000000      0.00000000      0.00000000      0.00000000      0.00000000      0.00000000      0.00000000</v>
  </separator>
  <separator name="performance" >
   <i type="int" name="NPAR">   128</i>
   <i type="int" name="NSIM">     4</i>
   <i type="int" name="NBLK">    -1</i>
   <i type="logical" name="LPLANE"> T  </i>
   <i type="logical" name="LSCALAPACK"> T  </i>
   <i type="logical" name="LSCAAWARE"> T  </i>
   <i type="logical" name="LSCALU"> F  </i>
   <i type="logical" name="LASYNC"> F  </i>
   <i type="logical" name="LORBITALREAL"> F  </i>
  </separator>
  <separator name="miscellaneous" >
   <i type="int" name="IDIOT">     3</i>
   <i type="int" name="PHON_NSTRUCT">    -1</i>
   <i type="logical" name="LMUSIC"> F  </i>
   <v name="POMASS">     91.22400000      7.01000000    138.90000000     16.00000000</v>
   <v name="DARWINR">      0.00000000      0.00000000      0.00000000      0.00000000</v>
   <v name="DARWINV">      1.00000000      1.00000000      1.00000000      1.00000000</v>
   <i type="logical" name="LCORR"> T  </i>
  </separator>
  <i type="logical" name="GGA_COMPAT"> T  </i>
  <i type="logical" name="LBERRY"> F  </i>
  <i type="int" name="ICORELEVEL">     0</i>
  <i type="logical" name="LDAU"> F  </i>
  <i type="int" name="I_CONSTRAINED_M">     0</i>
  <separator name="electronic exchange-correlation" >
   <i type="string" name="GGA">PE</i>
   <i type="int" name="VOSKOWN">     0</i>
   <i type="logical" name="LHFCALC"> F  </i>
   <i type="string" name="PRECFOCK"></i>
   <i type="logical" name="LSYMGRAD"> F  </i>
   <i type="logical" name="LHFONE"> F  </i>
   <i type="logical" name="LRHFCALC"> F  </i>
   <i type="logical" name="LTHOMAS"> F  </i>
   <i type="logical" name="LMODELHF"> F  </i>
   <i type="logical" name="LFOCKACE"> F  </i>
   <i name="ENCUT4O">     -1.00000000</i>
   <i type="int" name="EXXOEP">     0</i>
   <i type="int" name="FOURORBIT">     0</i>
   <i name="AEXX">      0.00000000</i>
   <i name="HFALPHA">      0.00000000</i>
   <i name="MCALPHA">      0.00000000</i>
   <i name="ALDAX">      1.00000000</i>
   <i name="AGGAX">      1.00000000</i>
   <i name="ALDAC">      1.00000000</i>
   <i name="AGGAC">      1.00000000</i>
   <i type="int" name="NKREDX">     1</i>
   <i type="int" name="NKREDY">     1</i>
   <i type="int" name="NKREDZ">     1</i>
   <i type="logical" name="SHIFTRED"> F  </i>
   <i type="logical" name="ODDONLY"> F  </i>
   <i type="logical" name="EVENONLY"> F  </i>
   <i type="int" name="LMAXFOCK">     0</i>
   <i type="int" name="NMAXFOCKAE">     0</i>
   <i type="logical" name="LFOCKAEDFT"> F  </i>
   <i name="HFSCREEN">      0.00000000</i>
   <i name="HFSCREENC">      0.00000000</i>
   <i type="int" name="NBANDSGWLOW">     0</i>
  </separator>
  <separator name="vdW DFT" >
   <i type="logical" name="LUSE_VDW"> F  </i>
   <i type="int" name="IVDW_NL">     1</i>
   <i type="logical" name="LSPIN_VDW"> F  </i>
   <i name="Zab_VDW">     -0.84910000</i>
   <i name="PARAM1">      0.12340000</i>
   <i name="PARAM2">      1.00000000</i>
   <i name="PARAM3">      0.00000000</i>
  </separator>
  <separator name="model GW" >
   <i type="int" name="MODEL_GW">     0</i>
   <i name="MODEL_EPS0">      6.95392798</i>
   <i name="MODEL_ALPHA">      1.00000000</i>
  </separator>
  <separator name="linear response parameters" >
   <i type="logical" name="LEPSILON"> F  </i>
   <i type="logical" name="LRPA"> F  </i>
   <i type="logical" name="LNABLA"> F  </i>
   <i type="logical" name="LVEL"> F  </i>
   <i name="CSHIFT">      0.10000000</i>
   <i name="OMEGAMAX">     -1.00000000</i>
   <i name="DEG_THRESHOLD">      0.00200000</i>
   <i name="RTIME">     -0.10000000</i>
   <i name="WPLASMAI">      0.00000000</i>
   <v name="DFIELD">      0.00000000      0.00000000      0.00000000</v>
   <v name="WPLASMA">      0.00000000      0.00000000      0.00000000      0.00000000      0.00000000      0.00000000      0.00000000      0.00000000      0.00000000</v>
  </separator>
  <separator name="orbital magnetization" >
   <i type="logical" name="NUCIND"> F  </i>
   <v name="MAGPOS">      0.00000000      0.00000000      0.00000000</v>
   <i type="logical" name="LNICSALL"> T  </i>
   <i type="logical" name="ORBITALMAG"> F  </i>
   <i type="logical" name="LMAGBLOCH"> F  </i>
   <i type="logical" name="LCHIMAG"> F  </i>
   <i type="logical" name="LGAUGE"> T  </i>
   <i type="int" name="MAGATOM">     0</i>
   <v name="MAGDIPOL">      0.00000000      0.00000000      0.00000000</v>
   <v name="AVECCONST">      0.00000000      0.00000000      0.00000000</v>
  </separator>
  <separator name="response functions" >
   <i type="logical" name="LALL_IN_ONE"> F  </i>
   <i type="int" name="IALL_IN_ONE">    -1</i>
   <i type="int" name="NBANDS_WAVE">    -1</i>
   <i type="logical" name="LFINITE_TEMPERATURE"> F  </i>
   <i type="logical" name="LADDER"> F  </i>
   <i type="logical" name="LRPAFORCE"> F  </i>
   <i type="logical" name="LFXC"> F  </i>
   <i type="logical" name="LHARTREE"> T  </i>
   <i type="int" name="IBSE">     0</i>
   <v type="int" name="KPOINT">    -1     0     0     0</v>
   <i type="logical" name="LTCTC"> F  </i>
   <i type="logical" name="LTCTE"> F  </i>
   <i type="logical" name="LTETE"> F  </i>
   <i type="logical" name="LTRIPLET"> F  </i>
   <i type="logical" name="LFXCEPS"> F  </i>
   <i type="logical" name="LFXHEG"> F  </i>
   <i type="int" name="NATURALO">     2</i>
   <i type="logical" name="LHOLEGF"> F  </i>
   <i type="logical" name="L2ORDER"> F  </i>
   <i type="logical" name="LDMP1"> F  </i>
   <i type="logical" name="LMP2LT"> F  </i>
   <i type="logical" name="LSMP2LT"> F  </i>
   <i type="logical" name="LGWLF"> F  </i>
   <i name="ENCUTGW">     -1.60000002</i>
   <i name="ENCUTGWSOFT">     -1.60000002</i>
   <i name="ENCUTLF">     -1.00000000</i>
   <i type="logical" name="LESF_SPLINES"> F  </i>
   <i type="int" name="LMAXMP2">    -1</i>
   <i name="SCISSOR">      0.00000000</i>
   <i type="int" name="NOMEGA">     0</i>
   <i type="int" name="NOMEGAR">     0</i>
   <i type="int" name="NBANDSGW">    -1</i>
   <i type="int" name="NBANDSO">    -1</i>
   <i type="int" name="NBANDSV">    -1</i>
   <i type="int" name="NELMGW">     1</i>
   <i type="int" name="NELMHF">     1</i>
   <i type="int" name="DIM">     3</i>
   <i type="int" name="IESPILON">     4</i>
   <i type="int" name="ANTIRES">     0</i>
   <i name="OMEGAMAX">    -30.00000000</i>
   <i name="OMEGAMIN">    -30.00000000</i>
   <i name="OMEGATL">   -200.00000000</i>
   <i type="int" name="OMEGAGRID">     0</i>
   <i name="CSHIFT">     -0.10000000</i>
   <i type="logical" name="LSELFENERGY"> F  </i>
   <i type="logical" name="LSPECTRAL"> F  </i>
   <i type="logical" name="LSPECTRALGW"> F  </i>
   <i type="logical" name="LSINGLES"> F  </i>
   <i type="logical" name="LFERMIGW"> F  </i>
   <i type="logical" name="ODDONLYGW"> F  </i>
   <i type="logical" name="EVENONLYGW"> F  </i>
   <i type="int" name="NKREDLFX">     1</i>
   <i type="int" name="NKREDLFY">     1</i>
   <i type="int" name="NKREDLFZ">     1</i>
   <i type="int" name="MAXMEM">  2800</i>
   <i type="int" name="TELESCOPE">     0</i>
   <i type="int" name="NTAUPAR">    -1</i>
   <i type="int" name="NOMEGAPAR">    -1</i>
   <i name="DAMP_NEWTON">      0.80000001</i>
   <i name="LAMBDA">      1.00000000</i>
  </separator>
  <separator name="External order field" >
   <i name="OFIELD_KAPPA">      0.00000000</i>
   <v name="OFIELD_K">      0.00000000      0.00000000      0.00000000</v>
   <i name="OFIELD_Q6_NEAR">      0.00000000</i>
   <i name="OFIELD_Q6_FAR">      0.00000000</i>
   <i name="OFIELD_A">      0.00000000</i>
  </separator>
  <separator name="optional k-points parameters" >
   <i type="int" name="KPOINTS_OPT_MODE">     1</i>
   <i type="logical" name="LKPOINTS_OPT"> F  </i>
  </separator>
  <separator name="solvation model" >
   <i type="logical" name="LSOL"> F  </i>
  </separator>
 </parameters>
 <atominfo>
  <atoms>     192 </atoms>
  <types>       4 </types>
  <array name="atoms" >
   <dimension dim="1">ion</dimension>
   <field type="string">element</field>
   <field type="int">atomtype</field>
   <set>
    <rc><c>Zr</c><c>   1</c></rc>
    <rc><c>Zr</c><c>   1</c></rc>
    <rc><c>Zr</c><c>   1</c></rc>
    <rc><c>Zr</c><c>   1</c></rc>
    <rc><c>Zr</c><c>   1</c></rc>
    <rc><c>Zr</c><c>   1</c></rc>
    <rc><c>Zr</c><c>   1</c></rc>
    <rc><c>Zr</c><c>   1</c></rc>
    <rc><c>Zr</c><c>   1</c></rc>
    <rc><c>Zr</c><c>   1</c></rc>
    <rc><c>Zr</c><c>   1</c></rc>
    <rc><c>Zr</c><c>   1</c></rc>
    <rc><c>Zr</c><c>   1</c></rc>
    <rc><c>Zr</c><c>   1</c></rc>
    <rc><c>Zr</c><c>   1</c></rc>
    <rc><c>Zr</c><c>   1</c></rc>
    <rc><c>Li</c><c>   2</c></rc>
    <rc><c>Li</c><c>   2</c></rc>
    <rc><c>Li</c><c>   2</c></rc>
    <rc><c>Li</c><c>   2</c></rc>
    <rc><c>Li</c><c>   2</c></rc>
    <rc><c>Li</c><c>   2</c></rc>
    <rc><c>Li</c><c>   2</c></rc>
    <rc><c>Li</c><c>   2</c></rc>
    <rc><c>Li</c><c>   2</c></rc>
    <rc><c>Li</c><c>   2</c></rc>
    <rc><c>Li</c><c>   2</c></rc>
    <rc><c>Li</c><c>   2</c></rc>
    <rc><c>Li</c><c>   2</c></rc>
    <rc><c>Li</c><c>   2</c></rc>
    <rc><c>Li</c><c>   2</c></rc>
    <rc><c>Li</c><c>   2</c></rc>
    <rc><c>Li</c><c>   2</c></rc>
    <rc><c>Li</c><c>   2</c></rc>
    <rc><c>Li</c><c>   2</c></rc>
    <rc><c>Li</c><c>   2</c></rc>
    <rc><c>Li</c><c>   2</c></rc>
    <rc><c>Li</c><c>   2</c></rc>
    <rc><c>Li</c><c>   2</c></rc>
    <rc><c>Li</c><c>   2</c></rc>
    <rc><c>Li</c><c>   2</c></rc>
    <rc><c>Li</c><c>   2</c></rc>
    <rc><c>Li</c><c>   2</c></rc>
    <rc><c>Li</c><c>   2</c></rc>
    <rc><c>Li</c><c>   2</c></rc>
    <rc><c>Li</c><c>   2</c></rc>
    <rc><c>Li</c><c>   2</c></rc>
    <rc><c>Li</c><c>   2</c></rc>
    <rc><c>Li</c><c>   2</c></rc>
    <rc><c>Li</c><c>   2</c></rc>
    <rc><c>Li</c><c>   2</c></rc>
    <rc><c>Li</c><c>   2</c></rc>
    <rc><c>Li</c><c>   2</c></rc>
    <rc><c>Li</c><c>   2</c></rc>
    <rc><c>Li</c><c>   2</c></rc>
    <rc><c>Li</c><c>   2</c></rc>
    <rc><c>Li</c><c>   2</c></rc>
    <rc><c>Li</c><c>   2</c></rc>
    <rc><c>Li</c><c>   2</c></rc>
    <rc><c>Li</c><c>   2</c></rc>
    <rc><c>Li</c><c>   2</c></rc>
    <rc><c>Li</c><c>   2</c></rc>
    <rc><c>Li</c><c>   2</c></rc>
    <rc><c>Li</c><c>   2</c></rc>
    <rc><c>Li</c><c>   2</c></rc>
    <rc><c>Li</c><c>   2</c></rc>
    <rc><c>Li</c><c>   2</c></rc>
    <rc><c>Li</c><c>   2</c></rc>
    <rc><c>Li</c><c>   2</c></rc>
    <rc><c>Li</c><c>   2</c></rc>
    <rc><c>Li</c><c>   2</c></rc>
    <rc><c>Li</c><c>   2</c></rc>
    <rc><c>La</c><c>   3</c></rc>
    <rc><c>La</c><c>   3</c></rc>
    <rc><c>La</c><c>   3</c></rc>
    <rc><c>La</c><c>   3</c></rc>
    <rc><c>La</c><c>   3</c></rc>
    <rc><c>La</c><c>   3</c></rc>
    <rc><c>La</c><c>   3</c></rc>
    <rc><c>La</c><c>   3</c></rc>
    <rc><c>La</c><c>   3</c></rc>
    <rc><c>La</c><c>   3</c></rc>
    <rc><c>La</c><c>   3</c></rc>
    <rc><c>La</c><c>   3</c></rc>
    <rc><c>La</c><c>   3</c></rc>
    <rc><c>La</c><c>   3</c></rc>
    <rc><c>La</c><c>   3</c></rc>
    <rc><c>La</c><c>   3</c></rc>
    <rc><c>La</c><c>   3</c></rc>
    <rc><c>La</c><c>   3</c></rc>
    <rc><c>La</c><c>   3</c></rc>
    <rc><c>La</c><c>   3</c></rc>
    <rc><c>La</c><c>   3</c></rc>
    <rc><c>La</c><c>   3</c></rc>
    <rc><c>La</c><c>   3</c></rc>
    <rc><c>La</c><c>   3</c></rc>
    <rc><c>O </c><c>   4</c></rc>
    <rc><c>O </c><c>   4</c></rc>
    <rc><c>O </c><c>   4</c></rc>
    <rc><c>O </c><c>   4</c></rc>
    <rc><c>O </c><c>   4</c></rc>
    <rc><c>O </c><c>   4</c></rc>
    <rc><c>O </c><c>   4</c></rc>
    <rc><c>O </c><c>   4</c></rc>
    <rc><c>O </c><c>   4</c></rc>
    <rc><c>O </c><c>   4</c></rc>
    <rc><c>O </c><c>   4</c></rc>
    <rc><c>O </c><c>   4</c></rc>
    <rc><c>O </c><c>   4</c></rc>
    <rc><c>O </c><c>   4</c></rc>
    <rc><c>O </c><c>   4</c></rc>
    <rc><c>O </c><c>   4</c></rc>
    <rc><c>O </c><c>   4</c></rc>
    <rc><c>O </c><c>   4</c></rc>
    <rc><c>O </c><c>   4</c></rc>
    <rc><c>O </c><c>   4</c></rc>
    <rc><c>O </c><c>   4</c></rc>
    <rc><c>O </c><c>   4</c></rc>
    <rc><c>O </c><c>   4</c></rc>
    <rc><c>O </c><c>   4</c></rc>
    <rc><c>O </c><c>   4</c></rc>
    <rc><c>O </c><c>   4</c></rc>
    <rc><c>O </c><c>   4</c></rc>
    <rc><c>O </c><c>   4</c></rc>
    <rc><c>O </c><c>   4</c></rc>
    <rc><c>O </c><c>   4</c></rc>
    <rc><c>O </c><c>   4</c></rc>
    <rc><c>O </c><c>   4</c></rc>
    <rc><c>O </c><c>   4</c></rc>
    <rc><c>O </c><c>   4</c></rc>
    <rc><c>O </c><c>   4</c></rc>
    <rc><c>O </c><c>   4</c></rc>
    <rc><c>O </c><c>   4</c></rc>
    <rc><c>O </c><c>   4</c></rc>
    <rc><c>O </c><c>   4</c></rc>
    <rc><c>O </c><c>   4</c></rc>
    <rc><c>O </c><c>   4</c></rc>
    <rc><c>O </c><c>   4</c></rc>
    <rc><c>O </c><c>   4</c></rc>
    <rc><c>O </c><c>   4</c></rc>
    <rc><c>O </c><c>   4</c></rc>
    <rc><c>O </c><c>   4</c></rc>
    <rc><c>O </c><c>   4</c></rc>
    <rc><c>O </c><c>   4</c></rc>
    <rc><c>O </c><c>   4</c></rc>
    <rc><c>O </c><c>   4</c></rc>
    <rc><c>O </c><c>   4</c></rc>
    <rc><c>O </c><c>   4</c></rc>
    <rc><c>O </c><c>   4</c></rc>
    <rc><c>O </c><c>   4</c></rc>
    <rc><c>O </c><c>   4</c></rc>
    <rc><c>O </c><c>   4</c></rc>
    <rc><c>O </c><c>   4</c></rc>
    <rc><c>O </c><c>   4</c></rc>
    <rc><c>O </c><c>   4</c></rc>
    <rc><c>O </c><c>   4</c></rc>
    <rc><c>O </c><c>   4</c></rc>
    <rc><c>O </c><c>   4</c></rc>
    <rc><c>O </c><c>   4</c></rc>
    <rc><c>O </c><c>   4</c></rc>
    <rc><c>O </c><c>   4</c></rc>
    <rc><c>O </c><c>   4</c></rc>
    <rc><c>O </c><c>   4</c></rc>
    <rc><c>O </c><c>   4</c></rc>
    <rc><c>O </c><c>   4</c></rc>
    <rc><c>O </c><c>   4</c></rc>
    <rc><c>O </c><c>   4</c></rc>
    <rc><c>O </c><c>   4</c></rc>
    <rc><c>O </c><c>   4</c></rc>
    <rc><c>O </c><c>   4</c></rc>
    <rc><c>O </c><c>   4</c></rc>
    <rc><c>O </c><c>   4</c></rc>
    <rc><c>O </c><c>   4</c></rc>
    <rc><c>O </c><c>   4</c></rc>
    <rc><c>O </c><c>   4</c></rc>
    <rc><c>O </c><c>   4</c></rc>
    <rc><c>O </c><c>   4</c></rc>
    <rc><c>O </c><c>   4</c></rc>
    <rc><c>O </c><c>   4</c></rc>
    <rc><c>O </c><c>   4</c></rc>
    <rc><c>O </c><c>   4</c></rc>
    <rc><c>O </c><c>   4</c></rc>
    <rc><c>O </c><c>   4</c></rc>
    <rc><c>O </c><c>   4</c></rc>
    <rc><c>O </c><c>   4</c></rc>
    <rc><c>O </c><c>   4</c></rc>
    <rc><c>O </c><c>   4</c></rc>
    <rc><c>O </c><c>   4</c></rc>
    <rc><c>O </c><c>   4</c></rc>
    <rc><c>O </c><c>   4</c></rc>
    <rc><c>O </c><c>   4</c></rc>
    <rc><c>O </c><c>   4</c></rc>
   </set>
  </array>
  <array name="atomtypes" >
   <dimension dim="1">type</dimension>
   <field type="int">atomspertype</field>
   <field type="string">element</field>
   <field>mass</field>
   <field>valence</field>
   <field type="string">pseudopotential</field>
   <set>
    <rc><c>  16</c><c>Zr</c><c>     91.22400000</c><c>     12.00000000</c><c>  PAW_PBE Zr_sv 04Jan2005               </c></rc>
    <rc><c>  56</c><c>Li</c><c>      7.01000000</c><c>      3.00000000</c><c>  PAW_PBE Li_sv 10Sep2004               </c></rc>
    <rc><c>  24</c><c>La</c><c>    138.90000000</c><c>     11.00000000</c><c>  PAW_PBE La 06Sep2000                  </c></rc>
    <rc><c>  96</c><c>O </c><c>     16.00000000</c><c>      6.00000000</c><c>  PAW_PBE O 08Apr2002                   </c></rc>
   </set>
  </array>
 </atominfo>
 <structure name="initialpos" >
  <crystal>
   <varray name="basis" >
    <v>      13.23607000       0.00000000       0.00000000 </v>
    <v>       0.00000000      13.23607000       0.00000000 </v>
    <v>       0.00000000       0.00000000      12.70170600 </v>
   </varray>
   <i name="volume">   2225.25695306 </i>
   <varray name="rec_basis" >
    <v>       0.07555113       0.00000000       0.00000000 </v>
    <v>       0.00000000       0.07555113       0.00000000 </v>
    <v>       0.00000000       0.00000000       0.07872958 </v>
   </varray>
  </crystal>
  <varray name="positions" >
   <v>       0.00000000       0.25000000       0.12500000 </v>
   <v>       0.75000000       0.50000000       0.37500000 </v>
   <v>       0.50000000       0.25000000       0.62500000 </v>
   <v>       0.75000000       0.00000000       0.87500000 </v>
   <v>       0.50000000       0.75000000       0.12500000 </v>
   <v>       0.25000000       0.50000000       0.87500000 </v>
   <v>       0.00000000       0.75000000       0.62500000 </v>
   <v>       0.25000000       0.00000000       0.37500000 </v>
   <v>       0.25000000       0.00000000       0.87500000 </v>
   <v>       0.25000000       0.50000000       0.37500000 </v>
   <v>       0.75000000       0.00000000       0.37500000 </v>
   <v>       0.75000000       0.50000000       0.87500000 </v>
   <v>       0.50000000       0.75000000       0.62500000 </v>
   <v>       0.00000000       0.75000000       0.12500000 </v>
   <v>       0.00000000       0.25000000       0.62500000 </v>
   <v>       0.50000000       0.25000000       0.12500000 </v>
   <v>       0.08051550       0.16246550       0.93085650 </v>
   <v>       0.83753450       0.58051550       0.18085650 </v>
   <v>       0.41948450       0.33753450       0.43085650 </v>
   <v>       0.66246550       0.91948450       0.68085650 </v>
   <v>       0.58051550       0.83753450       0.31914350 </v>
   <v>       0.33753450       0.41948450       0.06914350 </v>
   <v>       0.91948450       0.66246550       0.81914350 </v>
   <v>       0.16246550       0.08051550       0.56914350 </v>
   <v>       0.91948450       0.33753450       0.31914350 </v>
   <v>       0.16246550       0.91948450       0.06914350 </v>
   <v>       0.58051550       0.16246550       0.81914350 </v>
   <v>       0.33753450       0.58051550       0.56914350 </v>
   <v>       0.41948450       0.66246550       0.93085650 </v>
   <v>       0.66246550       0.08051550       0.18085650 </v>
   <v>       0.08051550       0.83753450       0.43085650 </v>
   <v>       0.83753450       0.41948450       0.68085650 </v>
   <v>       0.58051550       0.66246550       0.43085650 </v>
   <v>       0.33753450       0.08051550       0.68085650 </v>
   <v>       0.91948450       0.83753450       0.93085650 </v>
   <v>       0.16246550       0.41948450       0.18085650 </v>
   <v>       0.08051550       0.33753450       0.81914350 </v>
   <v>       0.83753450       0.91948450       0.56914350 </v>
   <v>       0.41948450       0.16246550       0.31914350 </v>
   <v>       0.66246550       0.58051550       0.06914350 </v>
   <v>       0.41948450       0.83753450       0.81914350 </v>
   <v>       0.66246550       0.41948450       0.56914350 </v>
   <v>       0.08051550       0.66246550       0.31914350 </v>
   <v>       0.83753450       0.08051550       0.06914350 </v>
   <v>       0.91948450       0.16246550       0.43085650 </v>
   <v>       0.16246550       0.58051550       0.68085650 </v>
   <v>       0.58051550       0.33753450       0.93085650 </v>
   <v>       0.33753450       0.91948450       0.18085650 </v>
   <v>       0.18121100       0.18121100       0.75000000 </v>
   <v>       0.81878900       0.68121100       0.00000000 </v>
   <v>       0.31878900       0.31878900       0.25000000 </v>
   <v>       0.68121100       0.81878900       0.50000000 </v>
   <v>       0.81878900       0.31878900       0.50000000 </v>
   <v>       0.18121100       0.81878900       0.25000000 </v>
   <v>       0.68121100       0.18121100       0.00000000 </v>
   <v>       0.31878900       0.68121100       0.75000000 </v>
   <v>       0.68121100       0.68121100       0.25000000 </v>
   <v>       0.31878900       0.18121100       0.50000000 </v>
   <v>       0.81878900       0.81878900       0.75000000 </v>
   <v>       0.18121100       0.31878900       0.00000000 </v>
   <v>       0.31878900       0.81878900       0.00000000 </v>
   <v>       0.68121100       0.31878900       0.75000000 </v>
   <v>       0.18121100       0.68121100       0.50000000 </v>
   <v>       0.81878900       0.18121100       0.25000000 </v>
   <v>       0.00000000       0.00000000       0.00000000 </v>
   <v>       0.00000000       0.50000000       0.25000000 </v>
   <v>       0.50000000       0.50000000       0.50000000 </v>
   <v>       0.50000000       0.00000000       0.75000000 </v>
   <v>       0.50000000       0.00000000       0.25000000 </v>
   <v>       0.50000000       0.50000000       0.00000000 </v>
   <v>       0.00000000       0.50000000       0.75000000 </v>
   <v>       0.00000000       0.00000000       0.50000000 </v>
   <v>       0.12737000       0.25000000       0.37500000 </v>
   <v>       0.75000000       0.62737000       0.62500000 </v>
   <v>       0.37263000       0.25000000       0.87500000 </v>
   <v>       0.75000000       0.87263000       0.12500000 </v>
   <v>       0.62737000       0.75000000       0.87500000 </v>
   <v>       0.25000000       0.37263000       0.62500000 </v>
   <v>       0.87263000       0.75000000       0.37500000 </v>
   <v>       0.25000000       0.12737000       0.12500000 </v>
   <v>       0.87263000       0.25000000       0.87500000 </v>
   <v>       0.25000000       0.87263000       0.62500000 </v>
   <v>       0.62737000       0.25000000       0.37500000 </v>
   <v>       0.25000000       0.62737000       0.12500000 </v>
   <v>       0.37263000       0.75000000       0.37500000 </v>
   <v>       0.75000000       0.12737000       0.62500000 </v>
   <v>       0.12737000       0.75000000       0.87500000 </v>
   <v>       0.75000000       0.37263000       0.12500000 </v>
   <v>       0.00000000       0.00000000       0.25000000 </v>
   <v>       0.00000000       0.50000000       0.50000000 </v>
   <v>       0.50000000       0.50000000       0.75000000 </v>
   <v>       0.50000000       0.00000000       0.00000000 </v>
   <v>       0.00000000       0.50000000       0.00000000 </v>
   <v>       0.00000000       0.00000000       0.75000000 </v>
   <v>       0.50000000       0.00000000       0.50000000 </v>
   <v>       0.50000000       0.50000000       0.25000000 </v>
   <v>       0.03461600       0.19451700       0.77870400 </v>
   <v>       0.80548300       0.53461600       0.02870400 </v>
   <v>       0.46538400       0.30548300       0.27870400 </v>
   <v>       0.69451700       0.96538400       0.52870400 </v>
   <v>       0.53461600       0.80548300       0.47129600 </v>
   <v>       0.30548300       0.46538400       0.22129600 </v>
   <v>       0.96538400       0.69451700       0.97129600 </v>
   <v>       0.19451700       0.03461600       0.72129600 </v>
   <v>       0.96538400       0.30548300       0.47129600 </v>
   <v>       0.19451700       0.96538400       0.22129600 </v>
   <v>       0.53461600       0.19451700       0.97129600 </v>
   <v>       0.30548300       0.53461600       0.72129600 </v>
   <v>       0.46538400       0.69451700       0.77870400 </v>
   <v>       0.69451700       0.03461600       0.02870400 </v>
   <v>       0.03461600       0.80548300       0.27870400 </v>
   <v>       0.80548300       0.46538400       0.52870400 </v>
   <v>       0.53461600       0.69451700       0.27870400 </v>
   <v>       0.30548300       0.03461600       0.52870400 </v>
   <v>       0.96538400       0.80548300       0.77870400 </v>
   <v>       0.19451700       0.46538400       0.02870400 </v>
   <v>       0.03461600       0.30548300       0.97129600 </v>
   <v>       0.80548300       0.96538400       0.72129600 </v>
   <v>       0.46538400       0.19451700       0.47129600 </v>
   <v>       0.69451700       0.53461600       0.22129600 </v>
   <v>       0.46538400       0.80548300       0.97129600 </v>
   <v>       0.69451700       0.46538400       0.72129600 </v>
   <v>       0.03461600       0.69451700       0.47129600 </v>
   <v>       0.80548300       0.03461600       0.22129600 </v>
   <v>       0.96538400       0.19451700       0.27870400 </v>
   <v>       0.19451700       0.53461600       0.52870400 </v>
   <v>       0.53461600       0.30548300       0.77870400 </v>
   <v>       0.30548300       0.96538400       0.02870400 </v>
   <v>       0.05496300       0.10244300       0.09066700 </v>
   <v>       0.89755700       0.55496300       0.34066700 </v>
   <v>       0.44503700       0.39755700       0.59066700 </v>
   <v>       0.60244300       0.94503700       0.84066700 </v>
   <v>       0.55496300       0.89755700       0.15933300 </v>
   <v>       0.39755700       0.44503700       0.90933300 </v>
   <v>       0.94503700       0.60244300       0.65933300 </v>
   <v>       0.10244300       0.05496300       0.40933300 </v>
   <v>       0.94503700       0.39755700       0.15933300 </v>
   <v>       0.10244300       0.94503700       0.90933300 </v>
   <v>       0.55496300       0.10244300       0.65933300 </v>
   <v>       0.39755700       0.55496300       0.40933300 </v>
   <v>       0.44503700       0.60244300       0.09066700 </v>
   <v>       0.60244300       0.05496300       0.34066700 </v>
   <v>       0.05496300       0.89755700       0.59066700 </v>
   <v>       0.89755700       0.44503700       0.84066700 </v>
   <v>       0.55496300       0.60244300       0.59066700 </v>
   <v>       0.39755700       0.05496300       0.84066700 </v>
   <v>       0.94503700       0.89755700       0.09066700 </v>
   <v>       0.10244300       0.44503700       0.34066700 </v>
   <v>       0.05496300       0.39755700       0.65933300 </v>
   <v>       0.89755700       0.94503700       0.40933300 </v>
   <v>       0.44503700       0.10244300       0.15933300 </v>
   <v>       0.60244300       0.55496300       0.90933300 </v>
   <v>       0.44503700       0.89755700       0.65933300 </v>
   <v>       0.60244300       0.44503700       0.40933300 </v>
   <v>       0.05496300       0.60244300       0.15933300 </v>
   <v>       0.89755700       0.05496300       0.90933300 </v>
   <v>       0.94503700       0.10244300       0.59066700 </v>
   <v>       0.10244300       0.55496300       0.84066700 </v>
   <v>       0.55496300       0.39755700       0.09066700 </v>
   <v>       0.39755700       0.94503700       0.34066700 </v>
   <v>       0.15082300       0.22322700       0.57123600 </v>
   <v>       0.77677300       0.65082300       0.82123600 </v>
   <v>       0.34917700       0.27677300       0.07123600 </v>
   <v>       0.72322700       0.84917700       0.32123600 </v>
   <v>       0.65082300       0.77677300       0.67876400 </v>
   <v>       0.27677300       0.34917700       0.42876400 </v>
   <v>       0.84917700       0.72322700       0.17876400 </v>
   <v>       0.22322700       0.15082300       0.92876400 </v>
   <v>       0.84917700       0.27677300       0.67876400 </v>
   <v>       0.22322700       0.84917700       0.42876400 </v>
   <v>       0.65082300       0.22322700       0.17876400 </v>
   <v>       0.27677300       0.65082300       0.92876400 </v>
   <v>       0.34917700       0.72322700       0.57123600 </v>
   <v>       0.72322700       0.15082300       0.82123600 </v>
   <v>       0.15082300       0.77677300       0.07123600 </v>
   <v>       0.77677300       0.34917700       0.32123600 </v>
   <v>       0.65082300       0.72322700       0.07123600 </v>
   <v>       0.27677300       0.15082300       0.32123600 </v>
   <v>       0.84917700       0.77677300       0.57123600 </v>
   <v>       0.22322700       0.34917700       0.82123600 </v>
   <v>       0.15082300       0.27677300       0.17876400 </v>
   <v>       0.77677300       0.84917700       0.92876400 </v>
   <v>       0.34917700       0.22322700       0.67876400 </v>
   <v>       0.72322700       0.65082300       0.42876400 </v>
   <v>       0.34917700       0.77677300       0.17876400 </v>
   <v>       0.72322700       0.34917700       0.92876400 </v>
   <v>       0.15082300       0.72322700       0.67876400 </v>
   <v>       0.77677300       0.15082300       0.42876400 </v>
   <v>       0.84917700       0.22322700       0.07123600 </v>
   <v>       0.22322700       0.65082300       0.32123600 </v>
   <v>       0.65082300       0.27677300       0.57123600 </v>
   <v>       0.27677300       0.84917700       0.82123600 </v>
  </varray>
  <varray name="velocities" >
   <v>      -0.00013822       0.00009614      -0.00016697 </v>
   <v>      -0.00031293       0.00017191      -0.00001117 </v>
   <v>       0.00013338      -0.00019482       0.00012235 </v>
   <v>      -0.00017651      -0.00018541      -0.00000348 </v>
   <v>      -0.00004493      -0.00006873       0.00002111 </v>
   <v>       0.00018138      -0.00014532       0.00014348 </v>
   <v>       0.00011899       0.00003076      -0.00014801 </v>
   <v>      -0.00012141      -0.00006839       0.00007948 </v>
   <v>      -0.00010469      -0.00008363       0.00023827 </v>
   <v>      -0.00019033       0.00000983      -0.00033930 </v>
   <v>      -0.00001250       0.00004352      -0.00015465 </v>
   <v>       0.00011231       0.00008445      -0.00006285 </v>
   <v>      -0.00000911       0.00005127      -0.00004862 </v>
   <v>       0.00010837      -0.00003407      -0.00008119 </v>
   <v>      -0.00021726      -0.00014356      -0.00002454 </v>
   <v>      -0.00009390      -0.00013775      -0.00006767 </v>
   <v>      -0.00025503      -0.00006975       0.00049520 </v>
   <v>       0.00049999      -0.00031137       0.00030831 </v>
   <v>       0.00018957      -0.00029581      -0.00029685 </v>
   <v>       0.00130695       0.00113130      -0.00045434 </v>
   <v>       0.00061729       0.00022596      -0.00050861 </v>
   <v>      -0.00011399       0.00032489      -0.00010704 </v>
   <v>      -0.00040211      -0.00021752      -0.00070305 </v>
   <v>      -0.00029239       0.00048800      -0.00009360 </v>
   <v>       0.00011635       0.00020019       0.00041969 </v>
   <v>       0.00013281       0.00058754      -0.00034305 </v>
   <v>       0.00047152      -0.00030322       0.00008895 </v>
   <v>      -0.00025379       0.00030638      -0.00034477 </v>
   <v>      -0.00016786       0.00053215       0.00004738 </v>
   <v>      -0.00106612       0.00014965       0.00007125 </v>
   <v>      -0.00033281       0.00026066      -0.00046582 </v>
   <v>       0.00035264       0.00087540       0.00023922 </v>
   <v>       0.00049324       0.00070605      -0.00013070 </v>
   <v>       0.00024945      -0.00062646      -0.00055550 </v>
   <v>       0.00011278      -0.00099477      -0.00009071 </v>
   <v>      -0.00026618      -0.00048503      -0.00062874 </v>
   <v>       0.00020106      -0.00011251       0.00117790 </v>
   <v>      -0.00010990       0.00097191      -0.00032876 </v>
   <v>      -0.00017290      -0.00039468       0.00019659 </v>
   <v>      -0.00042495      -0.00105411       0.00024518 </v>
   <v>      -0.00044214      -0.00014509       0.00013141 </v>
   <v>       0.00008070       0.00086785       0.00003040 </v>
   <v>      -0.00023572       0.00073715      -0.00004282 </v>
   <v>       0.00099010       0.00016452       0.00022816 </v>
   <v>       0.00011416       0.00016701      -0.00019604 </v>
   <v>       0.00002045      -0.00008007       0.00000321 </v>
   <v>      -0.00008779       0.00009344       0.00015269 </v>
   <v>      -0.00023920       0.00017626       0.00028960 </v>
   <v>      -0.00046811      -0.00020913       0.00067450 </v>
   <v>      -0.00027308       0.00035004       0.00036789 </v>
   <v>       0.00106378       0.00034383      -0.00029200 </v>
   <v>      -0.00018450       0.00048434       0.00000811 </v>
   <v>      -0.00000058      -0.00055286       0.00008753 </v>
   <v>       0.00041950       0.00019941      -0.00014262 </v>
   <v>       0.00074368       0.00035899      -0.00011474 </v>
   <v>      -0.00071721       0.00003691       0.00092066 </v>
   <v>       0.00041586       0.00029384      -0.00042726 </v>
   <v>      -0.00099546      -0.00028674       0.00037584 </v>
   <v>       0.00030851       0.00023451       0.00088627 </v>
   <v>      -0.00061320      -0.00020508      -0.00044860 </v>
   <v>       0.00018085       0.00000802      -0.00026265 </v>
   <v>       0.00008194      -0.00020725       0.00005652 </v>
   <v>       0.00015066       0.00035539       0.00020681 </v>
   <v>      -0.00051327       0.00061321       0.00062911 </v>
   <v>      -0.00005682       0.00037868      -0.00016512 </v>
   <v>      -0.00045049      -0.00020053       0.00013553 </v>
   <v>       0.00059524      -0.00002324       0.00015708 </v>
   <v>      -0.00027453       0.00051991       0.00009412 </v>
   <v>      -0.00023218      -0.00017416      -0.00002478 </v>
   <v>      -0.00027894      -0.00009231       0.00038887 </v>
   <v>      -0.00072776      -0.00069386      -0.00030262 </v>
   <v>       0.00030780       0.00011563      -0.00016649 </v>
   <v>       0.00012862      -0.00008546       0.00003620 </v>
   <v>      -0.00013711       0.00026381      -0.00004849 </v>
   <v>       0.00004155       0.00018738       0.00021369 </v>
   <v>       0.00016498       0.00001725       0.00012173 </v>
   <v>       0.00006268       0.00005071      -0.00019945 </v>
   <v>      -0.00014530      -0.00020210      -0.00001459 </v>
   <v>      -0.00001285       0.00001695      -0.00004057 </v>
   <v>       0.00002435       0.00011754       0.00011305 </v>
   <v>       0.00007698      -0.00001988      -0.00001316 </v>
   <v>      -0.00011260      -0.00013298      -0.00004620 </v>
   <v>       0.00000073      -0.00007302      -0.00007214 </v>
   <v>      -0.00009048       0.00001944       0.00015668 </v>
   <v>      -0.00005918      -0.00009253       0.00009609 </v>
   <v>       0.00016763       0.00018226      -0.00012574 </v>
   <v>      -0.00011066      -0.00013492       0.00018479 </v>
   <v>       0.00005806      -0.00012080       0.00012831 </v>
   <v>      -0.00009698       0.00000601      -0.00010046 </v>
   <v>       0.00001454       0.00001338       0.00006640 </v>
   <v>      -0.00014782       0.00005674       0.00008712 </v>
   <v>       0.00000478      -0.00011791       0.00009191 </v>
   <v>       0.00003168       0.00000797       0.00003057 </v>
   <v>       0.00003618      -0.00013073       0.00008761 </v>
   <v>      -0.00015274      -0.00011631       0.00011344 </v>
   <v>      -0.00001605       0.00012111       0.00000425 </v>
   <v>       0.00004057      -0.00018465       0.00019839 </v>
   <v>       0.00007420      -0.00019785      -0.00063696 </v>
   <v>       0.00036358       0.00020477       0.00001522 </v>
   <v>       0.00022787      -0.00013204       0.00018216 </v>
   <v>       0.00022735       0.00013804       0.00027996 </v>
   <v>      -0.00002911       0.00026395       0.00068779 </v>
   <v>      -0.00003311      -0.00024642      -0.00007358 </v>
   <v>       0.00032809      -0.00008458       0.00014571 </v>
   <v>       0.00057094       0.00003022      -0.00014938 </v>
   <v>      -0.00010058       0.00002367      -0.00023744 </v>
   <v>       0.00005112      -0.00007958       0.00011261 </v>
   <v>      -0.00026071      -0.00011377       0.00036886 </v>
   <v>      -0.00029521      -0.00002599      -0.00036912 </v>
   <v>       0.00029250       0.00017173       0.00078161 </v>
   <v>      -0.00063173       0.00017442      -0.00006539 </v>
   <v>      -0.00015062      -0.00015546       0.00016629 </v>
   <v>      -0.00008632      -0.00013215      -0.00031236 </v>
   <v>       0.00030621       0.00014091       0.00032568 </v>
   <v>      -0.00026308      -0.00048466      -0.00013917 </v>
   <v>       0.00027019       0.00026770       0.00012490 </v>
   <v>       0.00036325      -0.00081167       0.00024506 </v>
   <v>      -0.00020807       0.00055847      -0.00006840 </v>
   <v>       0.00053821       0.00008517      -0.00058822 </v>
   <v>       0.00001433       0.00016556      -0.00019740 </v>
   <v>      -0.00008712       0.00021228       0.00043559 </v>
   <v>       0.00002728      -0.00034841      -0.00003741 </v>
   <v>       0.00014216      -0.00021261      -0.00058912 </v>
   <v>       0.00028456       0.00065140       0.00005808 </v>
   <v>       0.00001747      -0.00017576       0.00002861 </v>
   <v>      -0.00007531       0.00026308       0.00034906 </v>
   <v>       0.00013496      -0.00025222       0.00010908 </v>
   <v>       0.00013228       0.00031254      -0.00054977 </v>
   <v>       0.00044829      -0.00010910       0.00012683 </v>
   <v>       0.00026993       0.00047563       0.00003601 </v>
   <v>       0.00013741      -0.00011522      -0.00001633 </v>
   <v>       0.00027617      -0.00017552       0.00046132 </v>
   <v>       0.00000246      -0.00064339      -0.00021232 </v>
   <v>       0.00016234      -0.00011963      -0.00043891 </v>
   <v>      -0.00010720      -0.00051317       0.00029981 </v>
   <v>       0.00035072      -0.00019954      -0.00038588 </v>
   <v>      -0.00032101       0.00020381       0.00027281 </v>
   <v>       0.00056702      -0.00049980      -0.00063214 </v>
   <v>       0.00005934       0.00059686      -0.00004448 </v>
   <v>      -0.00032842      -0.00011500       0.00016261 </v>
   <v>       0.00031252       0.00012583      -0.00007461 </v>
   <v>       0.00020380       0.00024506      -0.00013429 </v>
   <v>       0.00028985       0.00063535      -0.00023770 </v>
   <v>      -0.00008081      -0.00037721      -0.00027874 </v>
   <v>      -0.00001290       0.00046869       0.00004495 </v>
   <v>      -0.00020022      -0.00016230       0.00013854 </v>
   <v>       0.00026090      -0.00045789      -0.00024602 </v>
   <v>      -0.00006252      -0.00006441       0.00040736 </v>
   <v>       0.00006268      -0.00005642       0.00010601 </v>
   <v>       0.00002914       0.00026056      -0.00055771 </v>
   <v>      -0.00054142      -0.00016406      -0.00045415 </v>
   <v>      -0.00034983       0.00000281      -0.00040640 </v>
   <v>       0.00013766      -0.00003110       0.00020871 </v>
   <v>       0.00002512       0.00028354      -0.00016800 </v>
   <v>      -0.00002648       0.00012357      -0.00071113 </v>
   <v>       0.00004883       0.00027226      -0.00072230 </v>
   <v>      -0.00013262      -0.00017364      -0.00049618 </v>
   <v>       0.00034848      -0.00015466       0.00037766 </v>
   <v>       0.00030353       0.00015248       0.00008587 </v>
   <v>       0.00021080       0.00030888       0.00011917 </v>
   <v>       0.00029512       0.00011077      -0.00046204 </v>
   <v>       0.00003820       0.00035215       0.00051837 </v>
   <v>      -0.00003315      -0.00011057       0.00027811 </v>
   <v>      -0.00024180       0.00025837       0.00010863 </v>
   <v>      -0.00013055      -0.00014569       0.00017050 </v>
   <v>       0.00012082       0.00010530      -0.00042066 </v>
   <v>      -0.00019332      -0.00000107      -0.00010360 </v>
   <v>      -0.00008286       0.00041920      -0.00061168 </v>
   <v>       0.00003325      -0.00031531      -0.00002996 </v>
   <v>       0.00020873      -0.00012498       0.00004564 </v>
   <v>       0.00022659       0.00046760      -0.00008963 </v>
   <v>       0.00051683       0.00002524      -0.00012810 </v>
   <v>      -0.00006778       0.00003396      -0.00033312 </v>
   <v>       0.00020911       0.00046619       0.00012081 </v>
   <v>       0.00002441      -0.00037623      -0.00052118 </v>
   <v>      -0.00051231       0.00004360       0.00053779 </v>
   <v>       0.00040558       0.00038294       0.00045909 </v>
   <v>       0.00036232       0.00007955      -0.00039178 </v>
   <v>       0.00024627      -0.00026403      -0.00045148 </v>
   <v>       0.00013723      -0.00004381      -0.00008882 </v>
   <v>       0.00026390       0.00033774      -0.00008319 </v>
   <v>       0.00044140       0.00007748      -0.00013138 </v>
   <v>       0.00016830       0.00030973      -0.00026624 </v>
   <v>      -0.00039747      -0.00001410       0.00008098 </v>
   <v>      -0.00028625       0.00054988      -0.00005700 </v>
   <v>       0.00028789       0.00012267       0.00036098 </v>
   <v>       0.00027168       0.00062951      -0.00027987 </v>
   <v>       0.00039723      -0.00014064      -0.00020906 </v>
   <v>       0.00020852      -0.00047646      -0.00056552 </v>
   <v>      -0.00013034       0.00002667       0.00010691 </v>
   <v>      -0.00022786      -0.00038259      -0.00013611 </v>
   <v>      -0.00018961      -0.00015893       0.00000491 </v>
  </varray>
 </structure>
 <calculation>
  <scstep>
   <time name="dav">    6.75    4.33</time>
   <time name="total">    6.82    4.40</time>
   <energy>
    <i name="alphaZ">   3957.05664450 </i>
    <i name="ewald"> -73943.64905640 </i>
    <i name="hartreedc"> -18183.28682975 </i>
    <i name="XCdc">   4914.47618046 </i>
    <i name="pawpsdc">  69254.24716809 </i>
    <i name="pawaedc"> -69970.07330829 </i>
    <i name="eentropy">     -0.16543832 </i>
    <i name="bandstr">   5127.01198738 </i>
    <i name="atom">  94178.87164503 </i>
    <i name="e_fr_energy">  15334.48899271 </i>
    <i name="e_wo_entrp">  15334.65443103 </i>
    <i name="e_0_energy">  15334.57171187 </i>
   </energy>
  </scstep>
  <scstep>
   <time name="dav">    6.77    4.37</time>
   <time name="total">    6.77    4.37</time>
   <energy>
    <i name="e_fr_energy">   2434.15367308 </i>
    <i name="e_wo_entrp">   2434.77623374 </i>
    <i name="e_0_energy">   2434.46495341 </i>
   </energy>
  </scstep>
  <scstep>
   <time name="dav">   12.23    7.80</time>
   <time name="total">   12.23    7.80</time>
   <energy>
    <i name="e_fr_energy">  -1144.61193374 </i>
    <i name="e_wo_entrp">  -1144.61193374 </i>
    <i name="e_0_energy">  -1144.61193374 </i>
   </energy>
  </scstep>
  <scstep>
   <time name="dav">   17.54   11.25</time>
   <time name="total">   17.54   11.25</time>
   <energy>
    <i name="e_fr_energy">  -1565.19154315 </i>
    <i name="e_wo_entrp">  -1565.19154315 </i>
    <i name="e_0_energy">  -1565.19154315 </i>
   </energy>
  </scstep>
  <scstep>
   <time name="dav">   18.37   11.69</time>
   <time name="total">   18.47   11.78</time>
   <energy>
    <i name="e_fr_energy">  -1592.09780035 </i>
    <i name="e_wo_entrp">  -1592.09780035 </i>
    <i name="e_0_energy">  -1592.09780035 </i>
   </energy>
  </scstep>
  <scstep>
   <time name="dav">   14.57    9.39</time>
   <time name="total">   14.73    9.57</time>
   <energy>
    <i name="e_fr_energy">  -1375.84606542 </i>
    <i name="e_wo_entrp">  -1375.84606542 </i>
    <i name="e_0_energy">  -1375.84606542 </i>
   </energy>
  </scstep>
  <scstep>
   <time name="dav">   16.73   10.74</time>
   <time name="total">   16.90   10.92</time>
   <energy>
    <i name="e_fr_energy">  -1379.80794510 </i>
    <i name="e_wo_entrp">  -1379.80794510 </i>
    <i name="e_0_energy">  -1379.80794510 </i>
   </energy>
  </scstep>
  <scstep>
   <time name="dav">   16.17   10.33</time>
   <time name="total">   16.32   10.50</time>
   <energy>
    <i name="e_fr_energy">  -1380.28812969 </i>
    <i name="e_wo_entrp">  -1380.28812969 </i>
    <i name="e_0_energy">  -1380.28812969 </i>
   </energy>
  </scstep>
  <scstep>
   <time name="dav">   12.46    7.95</time>
   <time name="total">   12.62    8.12</time>
   <energy>
    <i name="e_fr_energy">  -1380.19742209 </i>
    <i name="e_wo_entrp">  -1380.19742209 </i>
    <i name="e_0_energy">  -1380.19742209 </i>
   </energy>
  </scstep>
  <scstep>
   <time name="dav">   12.50    8.04</time>
   <time name="total">   12.64    8.20</time>
   <energy>
    <i name="e_fr_energy">  -1380.21141145 </i>
    <i name="e_wo_entrp">  -1380.21141145 </i>
    <i name="e_0_energy">  -1380.21141145 </i>
   </energy>
  </scstep>
  <scstep>
   <time name="dav">   16.31   10.44</time>
   <time name="total">   16.47   10.61</time>
   <energy>
    <i name="e_fr_energy">  -1380.20782447 </i>
    <i name="e_wo_entrp">  -1380.20782447 </i>
    <i name="e_0_energy">  -1380.20782447 </i>
   </energy>
  </scstep>
  <scstep>
   <time name="dav">   14.73    9.43</time>
   <time name="total">   14.89    9.61</time>
   <energy>
    <i name="e_fr_energy">  -1380.21022175 </i>
    <i name="e_wo_entrp">  -1380.21022175 </i>
    <i name="e_0_energy">  -1380.21022175 </i>
   </energy>
  </scstep>
  <scstep>
   <time name="dav">   14.64    9.36</time>
   <time name="total">   14.81    9.54</time>
   <energy>
    <i name="e_fr_energy">  -1380.21074133 </i>
    <i name="e_wo_entrp">  -1380.21074133 </i>
    <i name="e_0_energy">  -1380.21074133 </i>
   </energy>
  </scstep>
  <scstep>
   <time name="dav">   16.42   10.44</time>
   <time name="total">   16.57   10.60</time>
   <energy>
    <i name="e_fr_energy">  -1380.21078991 </i>
    <i name="e_wo_entrp">  -1380.21078991 </i>
    <i name="e_0_energy">  -1380.21078991 </i>
   </energy>
  </scstep>
  <scstep>
   <time name="dav">   11.68    7.49</time>
   <time name="total">   11.84    7.66</time>
   <energy>
    <i name="e_fr_energy">  -1380.21079867 </i>
    <i name="e_wo_entrp">  -1380.21079867 </i>
    <i name="e_0_energy">  -1380.21079867 </i>
   </energy>
  </scstep>
  <scstep>
   <time name="dav">   11.75    7.54</time>
   <time name="total">   11.82    7.62</time>
   <energy>
    <i name="alphaZ">   3957.05664450 </i>
    <i name="ewald"> -73943.64905640 </i>
    <i name="hartreedc"> -19258.96759666 </i>
    <i name="XCdc">   4999.98241971 </i>
    <i name="pawpsdc"> 104322.66697991 </i>
    <i name="pawaedc">-105128.17833509 </i>
    <i name="eentropy">     -0.00000000 </i>
    <i name="bandstr"> -10507.99349982 </i>
    <i name="atom">  94178.87164503 </i>
    <i name="e_fr_energy">  -1380.21079882 </i>
    <i name="e_wo_entrp">  -1380.21079882 </i>
    <i name="e_0_energy">  -1380.21079882 </i>
   </energy>
  </scstep>
  <structure>
   <crystal>
    <varray name="basis" >
     <v>      13.23607000       0.00000000       0.00000000 </v>
     <v>       0.00000000      13.23607000       0.00000000 </v>
     <v>       0.00000000       0.00000000      12.70170600 </v>
    </varray>
    <i name="volume">   2225.25695306 </i>
    <varray name="rec_basis" >
     <v>       0.07555113       0.00000000       0.00000000 </v>
     <v>       0.00000000       0.07555113       0.00000000 </v>
     <v>       0.00000000       0.00000000       0.07872958 </v>
    </varray>
   </crystal>
   <varray name="positions" >
    <v>       0.00000000       0.25000000       0.12500000 </v>
    <v>       0.75000000       0.50000000       0.37500000 </v>
    <v>       0.50000000       0.25000000       0.62500000 </v>
    <v>       0.75000000       0.00000000       0.87500000 </v>
    <v>       0.50000000       0.75000000       0.12500000 </v>
    <v>       0.25000000       0.50000000       0.87500000 </v>
    <v>       0.00000000       0.75000000       0.62500000 </v>
    <v>       0.25000000       0.00000000       0.37500000 </v>
    <v>       0.25000000       0.00000000       0.87500000 </v>
    <v>       0.25000000       0.50000000       0.37500000 </v>
    <v>       0.75000000       0.00000000       0.37500000 </v>
    <v>       0.75000000       0.50000000       0.87500000 </v>
    <v>       0.50000000       0.75000000       0.62500000 </v>
    <v>       0.00000000       0.75000000       0.12500000 </v>
    <v>       0.00000000       0.25000000       0.62500000 </v>
    <v>       0.50000000       0.25000000       0.12500000 </v>
    <v>       0.08051550       0.16246550       0.93085650 </v>
    <v>       0.83753450       0.58051550       0.18085650 </v>
    <v>       0.41948450       0.33753450       0.43085650 </v>
    <v>       0.66246550       0.91948450       0.68085650 </v>
    <v>       0.58051550       0.83753450       0.31914350 </v>
    <v>       0.33753450       0.41948450       0.06914350 </v>
    <v>       0.91948450       0.66246550       0.81914350 </v>
    <v>       0.16246550       0.08051550       0.56914350 </v>
    <v>       0.91948450       0.33753450       0.31914350 </v>
    <v>       0.16246550       0.91948450       0.06914350 </v>
    <v>       0.58051550       0.16246550       0.81914350 </v>
    <v>       0.33753450       0.58051550       0.56914350 </v>
    <v>       0.41948450       0.66246550       0.93085650 </v>
    <v>       0.66246550       0.08051550       0.18085650 </v>
    <v>       0.08051550       0.83753450       0.43085650 </v>
    <v>       0.83753450       0.41948450       0.68085650 </v>
    <v>       0.58051550       0.66246550       0.43085650 </v>
    <v>       0.33753450       0.08051550       0.68085650 </v>
    <v>       0.91948450       0.83753450       0.93085650 </v>
    <v>       0.16246550       0.41948450       0.18085650 </v>
    <v>       0.08051550       0.33753450       0.81914350 </v>
    <v>       0.83753450       0.91948450       0.56914350 </v>
    <v>       0.41948450       0.16246550       0.31914350 </v>
    <v>       0.66246550       0.58051550       0.06914350 </v>
    <v>       0.41948450       0.83753450       0.81914350 </v>
    <v>       0.66246550       0.41948450       0.56914350 </v>
    <v>       0.08051550       0.66246550       0.31914350 </v>
    <v>       0.83753450       0.08051550       0.06914350 </v>
    <v>       0.91948450       0.16246550       0.43085650 </v>
    <v>       0.16246550       0.58051550       0.68085650 </v>
    <v>       0.58051550       0.33753450       0.93085650 </v>
    <v>       0.33753450       0.91948450       0.18085650 </v>
    <v>       0.18121100       0.18121100       0.75000000 </v>
    <v>       0.81878900       0.68121100       0.00000000 </v>
    <v>       0.31878900       0.31878900       0.25000000 </v>
    <v>       0.68121100       0.81878900       0.50000000 </v>
[...]
   <v>       0.09900548       0.94737099       0.91061004 </v>
   <v>       0.54535440       0.10871081       0.66199682 </v>
   <v>       0.40168336       0.53605863       0.40313099 </v>
   <v>       0.43980465       0.61333283       0.08677561 </v>
   <v>       0.60785559       0.01572171       0.34376809 </v>
   <v>       0.06244162       0.88371894       0.57482212 </v>
   <v>       0.90368018       0.45755487       0.85277691 </v>
   <v>       0.56925404       0.60007948       0.59024377 </v>
   <v>       0.39272618       0.05248702       0.84217993 </v>
   <v>       0.95933014       0.90272021       0.08283947 </v>
   <v>       0.11080855       0.42916305       0.33528928 </v>
   <v>       0.04113239       0.40289937       0.65139836 </v>
   <v>       0.90333886       0.93463949       0.39333553 </v>
   <v>       0.44614415       0.09516212       0.16152661 </v>
   <v>       0.60760337       0.57083246       0.90405484 </v>
   <v>       0.44636160       0.89195085       0.65647330 </v>
   <v>       0.59351286       0.44122628       0.41998307 </v>
   <v>       0.05803132       0.60743214       0.16920832 </v>
   <v>       0.90608920       0.06597883       0.88528547 </v>
   <v>       0.97340757       0.09824166       0.58759111 </v>
   <v>       0.09686615       0.55177282       0.83308447 </v>
   <v>       0.55225520       0.40455734       0.09040479 </v>
   <v>       0.39061940       0.94300928       0.33694005 </v>
   <v>       0.15578264       0.22349876       0.57372906 </v>
   <v>       0.78878603       0.66074894       0.81627641 </v>
   <v>       0.35528650       0.27755665       0.07803009 </v>
   <v>       0.73180475       0.83757479       0.32382908 </v>
   <v>       0.64644405       0.77079001       0.69223348 </v>
   <v>       0.28345852       0.34934323       0.44040745 </v>
   <v>       0.85211056       0.72838331       0.18313945 </v>
   <v>       0.22843650       0.15301277       0.93828346 </v>
   <v>       0.85312982       0.26718793       0.67470979 </v>
   <v>       0.21447873       0.84483359       0.41822511 </v>
   <v>       0.65200131       0.21032864       0.18706246 </v>
   <v>       0.26929555       0.65215957       0.91110455 </v>
   <v>       0.34801444       0.72796199       0.54799237 </v>
   <v>       0.72085900       0.15816325       0.82057280 </v>
   <v>       0.14643468       0.77610455       0.05969021 </v>
   <v>       0.76802251       0.34106047       0.32677574 </v>
   <v>       0.64612442       0.72578884       0.07387155 </v>
   <v>       0.26892187       0.14374419       0.32502353 </v>
   <v>       0.85123002       0.76833907       0.57407913 </v>
   <v>       0.21789839       0.35039924       0.83221318 </v>
   <v>       0.15349623       0.28226610       0.17376159 </v>
   <v>       0.78995462       0.85444264       0.92162110 </v>
   <v>       0.34609471       0.22136305       0.69123053 </v>
   <v>       0.73319710       0.64093118       0.43612482 </v>
   <v>       0.35212426       0.79080210       0.16710736 </v>
   <v>       0.72960061       0.36716286       0.94171435 </v>
   <v>       0.15491445       0.71957067       0.67441773 </v>
   <v>       0.77945594       0.14392541       0.43843851 </v>
   <v>       0.85261758       0.22124358       0.07229027 </v>
   <v>       0.23775683       0.66027517       0.31241015 </v>
   <v>       0.64241208       0.27548236       0.58137750 </v>
   <v>       0.28065341       0.85319935       0.83069585 </v>
  </varray>
 </structure>
 <varray name="forces" >
  <v>       0.21250948      -1.38286781       0.22097964 </v>
  <v>       0.20902345       0.54159509      -0.89215574 </v>
  <v>       0.36127250      -1.15040153      -0.22175398 </v>
  <v>      -0.87823593       0.12103859       0.20975338 </v>
  <v>       0.82599994      -0.23738400      -0.56919022 </v>
  <v>       0.90111620      -0.44576562       0.88961555 </v>
  <v>      -1.26919251       1.69006386       1.03776640 </v>
  <v>      -0.13518373       0.73979797       1.66719371 </v>
  <v>       0.31337054      -0.62984056      -0.58078539 </v>
  <v>      -1.04258051      -0.07201475      -0.24422393 </v>
  <v>      -0.75971229       1.33921031      -0.90208537 </v>
  <v>      -0.91164623      -1.47271467       0.19868982 </v>
  <v>      -0.62489140       0.55374010       0.41083278 </v>
  <v>       0.91036228      -0.28775929       0.08863356 </v>
  <v>      -0.67915855      -0.95651022       1.03347829 </v>
  <v>       0.80963254       0.55481831      -0.37917331 </v>
  <v>      -0.36375769       0.24737736       0.25013101 </v>
  <v>       0.49041711       0.17962334       0.09343668 </v>
  <v>       0.19771127      -0.36558753      -0.07726779 </v>
  <v>       0.03737863       0.06597659       0.11059149 </v>
  <v>      -0.07203479      -0.03417878       0.00763056 </v>
  <v>      -0.05952634       0.22732228      -0.37695530 </v>
  <v>       0.07716871       0.17952508      -0.16566434 </v>
  <v>      -0.14038339      -0.39678017      -0.04126133 </v>
  <v>       0.15955385      -0.12839408       0.06510499 </v>
  <v>      -0.10701977      -0.26126209       0.14956789 </v>
  <v>      -0.01253287      -0.16018501      -0.25820805 </v>
  <v>      -0.18656241       0.03342029      -0.48691355 </v>
  <v>      -0.04639089      -0.48228327      -0.00802942 </v>
  <v>       0.01147293      -0.34189355       0.10697190 </v>
  <v>       0.27161626      -0.00530499       0.20368521 </v>
  <v>      -0.26267903      -0.16273873       0.00804156 </v>
  <v>      -0.22548292       0.17896371      -0.33781646 </v>
  <v>       0.32947008       0.41337054      -0.18880113 </v>
  <v>      -0.03584718       0.01074737       0.16271567 </v>
  <v>       0.28334230       0.02993819       0.19591766 </v>
  <v>       0.18351732       0.03295737      -0.10623735 </v>
  <v>       0.41904086       0.16690721      -0.22958196 </v>
  <v>       0.15198503       0.31710671      -0.19609985 </v>
  <v>      -0.17783659       0.34605776       0.19894428 </v>
  <v>      -0.15920200      -0.16150490       0.18060789 </v>
  <v>      -0.11726467      -0.26109072       0.05071861 </v>
  <v>      -0.23296350       0.21346620      -0.35747090 </v>
  <v>       0.04295726       0.01832688       0.22079634 </v>
  <v>      -0.10892517      -0.14052384      -0.31843085 </v>
  <v>       0.13790970       0.04481549      -0.15571930 </v>
  <v>      -0.23479661       0.33991885       0.09450083 </v>
  <v>      -0.00904611       0.09361511      -0.03592957 </v>
  <v>       0.10669654       0.47835454       0.29137337 </v>
  <v>      -1.18983962       0.18215812       0.68142152 </v>
  <v>      -0.51748269      -0.05087987       0.64007023 </v>
  <v>       0.41998822       0.13099307      -0.16012653 </v>
  <v>      -0.01515628       0.05500791      -0.03905926 </v>
  <v>       0.55445939       0.01542715      -0.57076642 </v>
  <v>       0.28198211       0.16586180       0.03975197 </v>
  <v>      -0.23127414       0.06789497      -0.09217576 </v>
  <v>       0.13339322      -0.03772114       0.14777482 </v>
  <v>       0.14990754       0.19119152       0.20738229 </v>
  <v>       0.12271037       0.02055537      -0.33172160 </v>
  <v>       0.67942247       0.51986081       0.13286471 </v>
  <v>      -0.12162316      -0.42802805      -0.42855012 </v>
  <v>       0.21999653      -0.20731724      -0.16982016 </v>
  <v>       0.37770350      -0.23214991      -0.47850969 </v>
  <v>      -0.32598416      -0.12964609       0.07665427 </v>
  <v>      -0.65364451       0.08981780       0.02778186 </v>
  <v>       0.15654951       0.24751191      -0.08670813 </v>
  <v>      -0.06724545       0.20350775       0.04358205 </v>
  <v>       0.28169303      -0.12860734      -0.26104761 </v>
  <v>      -0.17183177       0.31967645       0.71650874 </v>
  <v>      -0.32262380      -0.30908027      -0.44451374 </v>
  <v>       0.29454870      -0.04712517      -0.12465751 </v>
  <v>       0.01272829      -0.09882274       0.15189521 </v>
  <v>       0.71937113       1.09507774      -0.79201456 </v>
  <v>       0.54509945       1.10805655      -0.71603383 </v>
  <v>       0.62081321       1.42984146       0.78490951 </v>
  <v>      -0.58172170       0.27719749      -0.61863449 </v>
  <v>      -0.24253477       1.60336434      -0.91715169 </v>
  <v>      -0.11539507      -0.09183280      -1.03325167 </v>
  <v>      -0.27595572      -0.71349356       0.80725786 </v>
  <v>      -0.17125010       0.55289466       1.05728252 </v>
  <v>      -0.98252244      -0.19492829       0.63212742 </v>
  <v>       0.09892205      -0.65434935      -0.64973793 </v>
  <v>       0.59817842       0.19629719       0.91614605 </v>
  <v>       1.15622684       0.56828737      -0.59231224 </v>
  <v>      -0.03672787      -2.29010616       1.22687399 </v>
  <v>      -0.17721295       0.06083443       0.37162382 </v>
  <v>       0.38211893      -0.46352952       0.27261353 </v>
  <v>      -0.88635046      -0.45846723      -0.09154974 </v>
  <v>       0.67806176       0.16074181      -0.94871788 </v>
  <v>       0.24180432      -1.08222810      -0.93391046 </v>
  <v>       0.07863614      -0.22184923       2.04066932 </v>
  <v>       0.15618066       0.10172067      -0.74890631 </v>
  <v>       0.50700610       0.64452285      -1.03417823 </v>
  <v>      -0.27632114      -0.42569072      -1.43644197 </v>
  <v>       0.70797018       0.40574388       1.65650341 </v>
  <v>      -0.26459871      -0.21275675      -0.77284870 </v>
  <v>      -0.15751101      -0.28284717      -0.04182050 </v>
  <v>       0.32339763      -0.48496428       0.15417438 </v>
  <v>      -0.21661792      -0.21167188       0.18103030 </v>
  <v>      -0.47773961      -0.08372456       0.58272993 </v>
  <v>      -0.48599034      -0.06609139       0.31229707 </v>
  <v>       0.04015480      -0.18306790      -0.29593344 </v>
  <v>      -0.26203251      -0.09051474       0.15735086 </v>
  <v>      -0.05432189      -0.00483525       0.50417431 </v>
  <v>      -0.13320638       0.44444910      -0.19000171 </v>
  <v>       0.30352437       0.12512034      -0.06968744 </v>
  <v>      -0.04557825       0.26387153      -0.05787817 </v>
  <v>       0.18515784       0.38073092      -0.09091854 </v>
  <v>      -0.72082348       0.21695079      -0.05256727 </v>
  <v>       0.19683718       0.04319487      -0.57315457 </v>
  <v>      -0.19598682       0.27223537      -0.81750662 </v>
  <v>       0.25447762       0.64423058      -0.66973276 </v>
  <v>       0.02739545       0.19696437       0.12290592 </v>
  <v>      -0.50381036       0.12675750       0.19874244 </v>
  <v>      -0.43166434      -0.38962480       0.03701600 </v>
  <v>      -0.26477339      -0.21283878      -0.08751880 </v>
  <v>      -0.53400995      -0.47521958       0.55492140 </v>
  <v>       0.42783740       0.18267396       0.35607631 </v>
  <v>       0.16879203       0.18678400      -0.10375299 </v>
  <v>       0.35690294      -0.76241919      -0.01525956 </v>
  <v>      -0.42964953      -0.18752097      -0.09023949 </v>
  <v>       0.09427420      -0.24008443       0.97509756 </v>
  <v>       0.47062576      -0.23944935       0.30761810 </v>
  <v>      -0.02379836      -0.05710388       0.12501007 </v>
  <v>      -0.28522100       0.43216598      -0.39110536 </v>
  <v>       0.36269515       0.26774867      -0.06436705 </v>
  <v>      -0.06607936       0.30285654       0.41139518 </v>
  <v>       0.13572572      -0.05258240      -0.44617295 </v>
  <v>       0.28193817       0.48477005      -0.08541860 </v>
  <v>      -0.50324379       0.18533223       0.25853681 </v>
  <v>      -0.08961356      -0.43298214      -0.71307025 </v>
  <v>       0.26637280      -0.08758718       0.64099229 </v>
  <v>       0.57637493      -0.80762489       0.10955318 </v>
  <v>      -0.59916801       0.45243636       0.18036426 </v>
  <v>       0.15662131      -0.09807307       0.21940166 </v>
  <v>      -0.59434756      -0.56319275      -0.38629754 </v>
  <v>      -0.01845738      -0.42701795       0.48740184 </v>
  <v>       0.60745875       0.33291990      -0.32823338 </v>
  <v>       0.17344372      -0.40861176      -0.18818827 </v>
  <v>       0.36588693      -0.04109642       0.72958642 </v>
  <v>       0.14111332      -0.28807691      -0.18553311 </v>
  <v>      -0.25424892       0.46841885      -0.15064397 </v>
  <v>       0.02259111       0.16387959       0.26363681 </v>
  <v>      -0.36783797      -0.11926944      -0.60725891 </v>
  <v>      -0.98082097       0.37543461      -0.36213886 </v>
  <v>      -0.41975598      -0.06051373       0.12697289 </v>
  <v>      -0.42928405      -0.42330450       0.63097194 </v>
  <v>      -0.08281064       0.79573214       0.11390470 </v>
  <v>       0.62788010      -0.33373441       0.49254409 </v>
  <v>       0.68536683      -0.08716150       0.87076736 </v>
  <v>      -0.20629132       1.00074364      -0.23208719 </v>
  <v>       0.28767832      -1.03515475       0.35847193 </v>
  <v>       0.24040697       0.01222142       0.21428206 </v>
  <v>       1.01623001      -0.16181864      -0.53752775 </v>
  <v>      -0.29731903      -0.30243941      -0.23053515 </v>
  <v>      -0.37318235      -0.21731428       1.08284671 </v>
  <v>      -0.17825188       0.16440103       0.23904959 </v>
  <v>       0.19875885      -0.06506576       0.05936294 </v>
  <v>       0.12639314      -0.80135378       0.21014209 </v>
  <v>       0.05536550       0.66734424      -0.70988725 </v>
  <v>      -0.01252855       0.20889402      -0.01386927 </v>
  <v>       0.45928514      -0.62846130       0.29658856 </v>
  <v>      -0.05130043      -0.13510817      -0.11733190 </v>
  <v>      -0.49407828       0.31183062      -0.26865080 </v>
  <v>      -0.16559638       0.26243815      -1.03671004 </v>
  <v>      -0.17291677       0.18768642      -0.01425979 </v>
  <v>       0.29820351       0.02042904      -0.42175972 </v>
  <v>      -0.36550913      -0.41773162      -0.45099522 </v>
  <v>       0.22282326       0.24908169       0.04229127 </v>
  <v>      -0.04275033       0.74752463       0.17957981 </v>
  <v>      -0.47743571       0.73745815      -0.43152344 </v>
  <v>       0.60312845      -0.03651252       0.35310954 </v>
  <v>       0.67767441      -0.33120815       0.97597406 </v>
  <v>       0.63015205      -0.39326460       0.47214404 </v>
  <v>       0.13133154       0.10021503       0.79689053 </v>
  <v>       0.18147032       0.15928836      -0.26302725 </v>
  <v>       0.35930863      -0.05416095       0.36156792 </v>
  <v>       0.34614777       0.01516321      -0.29794257 </v>
  <v>       0.44726229      -0.14679319      -0.26924368 </v>
  <v>       0.11770965       0.02506015      -0.40814740 </v>
  <v>      -0.54359820      -0.50640644      -0.39180112 </v>
  <v>      -0.10695462      -0.06125704       0.51359307 </v>
  <v>      -0.25066008       0.00952380      -0.75260375 </v>
  <v>      -0.24918112      -0.20958795      -0.02551306 </v>
  <v>      -0.54547279      -0.02241067       0.17859424 </v>
  <v>      -0.04391296      -0.14103703      -0.63843849 </v>
  <v>      -0.00991982      -0.03856873      -0.27163610 </v>
  <v>      -0.33169208      -0.56815547      -0.19754955 </v>
  <v>       0.22354708       0.56890813       0.05159099 </v>
  <v>      -0.70878664      -0.66291344       0.28151521 </v>
  <v>       0.24222587       0.22372113      -0.49547150 </v>
  <v>      -0.00105422       0.56543542      -0.40812934 </v>
 </varray>
 <varray name="stress" >
  <v>     -42.89415817      -1.99125821      -4.67865041 </v>
  <v>      -1.99125821     -46.18340239       4.32730713 </v>
  <v>      -4.67865041       4.32730713     -35.12503401 </v>
 </varray>
 <energy>
  <i name="e_fr_energy">  -1371.17969212 </i>
  <i name="e_wo_entrp">  -1371.17969212 </i>
  <i name="e_0_energy">  -1371.17969212 </i>
  <i name="kinetic">      6.96446059 </i>
  <i name="lattice kinetic">      0.00000000 </i>
  <i name="nosepot">     -8.53671408 </i>
  <i name="nosekinetic">      0.07227186 </i>
  <i name="total">  -1372.67967374 </i>
 </energy>
 <time name="totalsc">    0.26    0.17</time>
 <structure>
  <crystal>
   <varray name="basis" >
    <v>      13.23607000       0.00000000       0.00000000 </v>
    <v>       0.00000000      13.23607000       0.00000000 </v>
    <v>       0.00000000       0.00000000      12.70170600 </v>
   </varray>
   <i name="volume">   2225.25695306 </i>
   <varray name="rec_basis" >
    <v>       0.07555113       0.00000000       0.00000000 </v>
    <v>       0.00000000       0.07555113       0.00000000 </v>
    <v>       0.00000000       0.00000000       0.07872958 </v>
   </varray>
  </crystal>
  <varray name="positions" >
   <v>       0.00327328       0.25723472       0.12186410 </v>
   <v>       0.74834631       0.48939404       0.38817240 </v>
   <v>       0.49538043       0.25276526       0.62788713 </v>
   <v>       0.75382250       0.00316199       0.87099339 </v>
   <v>       0.49521409       0.75446818       0.12530057 </v>
   <v>       0.24106377       0.50412196       0.87231623 </v>
   <v>       0.00666640       0.74375944       0.61768284 </v>
   <v>       0.23888216       0.99403455       0.36508783 </v>
   <v>       0.24922598       0.00060574       0.88354276 </v>
   <v>       0.25789648       0.49065589       0.37844229 </v>
   <v>       0.75853420       0.98464587       0.38716262 </v>
   <v>       0.75903946       0.51239378       0.87571477 </v>
   <v>       0.50251821       0.74607828       0.61880187 </v>
   <v>       0.99952111       0.75316883       0.12520273 </v>
   <v>       0.00563358       0.25505285       0.61694463 </v>
   <v>       0.49914365       0.24042493       0.12730083 </v>
   <v>       0.09493541       0.17744736       0.90982378 </v>
   <v>       0.79745293       0.60197332       0.16093039 </v>
   <v>       0.42235882       0.36717241       0.43562708 </v>
   <v>       0.64626365       0.91384615       0.69476840 </v>
   <v>       0.59221887       0.85480890       0.32377545 </v>
   <v>       0.35394832       0.42377061       0.06345755 </v>
   <v>       0.93811476       0.63928192       0.80900225 </v>
   <v>       0.14188569       0.08337642       0.56085178 </v>
   <v>       0.91389165       0.34808284       0.33084753 </v>
   <v>       0.14856188       0.91943011       0.07265002 </v>
   <v>       0.57975474       0.16310707       0.82540423 </v>
   <v>       0.32155953       0.58961026       0.58286044 </v>
   <v>       0.40683427       0.68917373       0.92709074 </v>
   <v>       0.67567651       0.07428550       0.18158973 </v>
   <v>       0.07077855       0.83368934       0.42919460 </v>
   <v>       0.83916764       0.41057965       0.67340339 </v>
   <v>       0.59182501       0.65505954       0.44226037 </v>
   <v>       0.33350610       0.07396967       0.68255981 </v>
   <v>       0.93667540       0.85540511       0.93116543 </v>
   <v>       0.16674682       0.41895602       0.18237709 </v>
   <v>       0.07809951       0.34613208       0.82002621 </v>
   <v>       0.80686569       0.89176963       0.60583805 </v>
   <v>       0.40432546       0.17162905       0.32898665 </v>
   <v>       0.65441850       0.57885585       0.05974056 </v>
   <v>       0.42537650       0.84891413       0.81009680 </v>
   <v>       0.65853133       0.41703234       0.57099155 </v>
   <v>       0.09254521       0.65380113       0.32647558 </v>
   <v>       0.84065084       0.08165120       0.07117302 </v>
   <v>       0.92320288       0.15454557       0.44986316 </v>
   <v>       0.15047661       0.57711900       0.68765000 </v>
   <v>       0.58580343       0.33330745       0.93569509 </v>
   <v>       0.32745159       0.92584483       0.18026892 </v>
   <v>       0.17966061       0.16970023       0.71734722 </v>
   <v>       0.84875573       0.69096980       0.94943848 </v>
   <v>       0.33472243       0.32953935       0.21753114 </v>
   <v>       0.67980150       0.80937479       0.51178577 </v>
   <v>       0.81569404       0.30399184       0.50373815 </v>
   <v> 