AIMD-MLFF-ON-THE-FLY                    
            1
    13.236070    0.000000    0.000000
     0.000000   13.236070    0.000000
     0.000000    0.000000   12.701706
   Zr   Li   La   O 
    16    56    24    96
Direct configuration=     1
   0.00000000  0.25000000  0.12500000
   0.75000000  0.50000000  0.37500000
   0.50000000  0.25000000  0.62500000
   0.75000000  0.00000000  0.87500000
   0.50000000  0.75000000  0.12500000
   0.25000000  0.50000000  0.87500000
   0.00000000  0.75000000  0.62500000
   0.25000000  0.00000000  0.37500000
   0.25000000  0.00000000  0.87500000
   0.25000000  0.50000000  0.37500000
   0.75000000  0.00000000  0.37500000
   0.75000000  0.50000000  0.87500000
   0.50000000  0.75000000  0.62500000
   0.00000000  0.75000000  0.12500000
   0.00000000  0.25000000  0.62500000
   0.50000000  0.25000000  0.12500000
   0.08051550  0.16246550  0.93085650
   0.83753450  0.58051550  0.18085650
   0.41948450  0.33753450  0.43085650
   0.66246550  0.91948450  0.68085650
   0.58051550  0.83753450  0.31914350
   0.33753450  0.41948450  0.06914350
   0.91948450  0.66246550  0.81914350
   0.16246550  0.08051550  0.56914350
   0.91948450  0.33753450  0.31914350
   0.16246550  0.91948450  0.06914350
   0.58051550  0.16246550  0.81914350
   0.33753450  0.58051550  0.56914350
   0.41948450  0.66246550  0.93085650
   0.66246550  0.08051550  0.18085650
   0.08051550  0.83753450  0.43085650
   0.83753450  0.41948450  0.68085650
   0.58051550  0.66246550  0.43085650
   0.33753450  0.08051550  0.68085650
   0.91948450  0.83753450  0.93085650
   0.16246550  0.41948450  0.18085650
   0.08051550  0.33753450  0.81914350
   0.83753450  0.91948450  0.56914350
   0.41948450  0.16246550  0.31914350
   0.66246550  0.58051550  0.06914350
   0.41948450  0.83753450  0.81914350
   0.66246550  0.41948450  0.56914350
   0.08051550  0.66246550  0.31914350
   0.83753450  0.08051550  0.06914350
   0.91948450  0.16246550  0.43085650
   0.16246550  0.58051550  0.68085650
   0.58051550  0.33753450  0.93085650
   0.33753450  0.91948450  0.18085650
   0.18121100  0.18121100  0.75000000
   0.81878900  0.68121100  0.00000000
   0.31878900  0.31878900  0.25000000
   0.68121100  0.81878900  0.50000000
   0.81878900  0.31878900  0.50000000
   0.18121100  0.81878900  0.25000000
   0.68121100  0.18121100  0.00000000
   0.31878900  0.68121100  0.75000000
   0.68121100  0.68121100  0.25000000
   0.31878900  0.18121100  0.50000000
   0.81878900  0.81878900  0.75000000
   0.18121100  0.31878900  0.00000000
   0.31878900  0.81878900  0.00000000
   0.68121100  0.31878900  0.75000000
   0.18121100  0.68121100  0.50000000
   0.81878900  0.18121100  0.25000000
   0.00000000  0.00000000  0.00000000
   0.00000000  0.50000000  0.25000000
   0.50000000  0.50000000  0.50000000
   0.50000000  0.00000000  0.75000000
   0.50000000  0.00000000  0.25000000
   0.50000000  0.50000000  0.00000000
   0.00000000  0.50000000  0.75000000
   0.00000000  0.00000000  0.50000000
   0.12737000  0.25000000  0.37500000
   0.75000000  0.62737000  0.62500000
   0.37263000  0.25000000  0.87500000
   0.75000000  0.87263000  0.12500000
   0.62737000  0.75000000  0.87500000
   0.25000000  0.37263000  0.62500000
   0.87263000  0.75000000  0.37500000
   0.25000000  0.12737000  0.12500000
   0.87263000  0.25000000  0.87500000
   0.25000000  0.87263000  0.62500000
   0.62737000  0.25000000  0.37500000
   0.25000000  0.62737000  0.12500000
   0.37263000  0.75000000  0.37500000
   0.75000000  0.12737000  0.62500000
   0.12737000  0.75000000  0.87500000
   0.75000000  0.37263000  0.12500000
   0.00000000  0.00000000  0.25000000
   0.00000000  0.50000000  0.50000000
   0.50000000  0.50000000  0.75000000
   0.50000000  0.00000000  0.00000000
   0.00000000  0.50000000  0.00000000
   0.00000000  0.00000000  0.75000000
   0.50000000  0.00000000  0.50000000
   0.50000000  0.50000000  0.25000000
   0.03461600  0.19451700  0.77870400
   0.80548300  0.53461600  0.02870400
   0.46538400  0.30548300  0.27870400
   0.69451700  0.96538400  0.52870400
   0.53461600  0.80548300  0.47129600
   0.30548300  0.46538400  0.22129600
   0.96538400  0.69451700  0.97129600
   0.19451700  0.03461600  0.72129600
   0.96538400  0.30548300  0.47129600
   0.19451700  0.96538400  0.22129600
   0.53461600  0.19451700  0.97129600
   0.30548300  0.53461600  0.72129600
   0.46538400  0.69451700  0.77870400
   0.69451700  0.03461600  0.02870400
   0.03461600  0.80548300  0.27870400
   0.80548300  0.46538400  0.52870400
   0.53461600  0.69451700  0.27870400
   0.30548300  0.03461600  0.52870400
   0.96538400  0.80548300  0.77870400
   0.19451700  0.46538400  0.02870400
   0.03461600  0.30548300  0.97129600
   0.80548300  0.96538400  0.72129600
   0.46538400  0.19451700  0.47129600
   0.69451700  0.53461600  0.22129600
   0.46538400  0.80548300  0.97129600
   0.69451700  0.46538400  0.72129600
   0.03461600  0.69451700  0.47129600
   0.80548300  0.03461600  0.22129600
   0.96538400  0.19451700  0.27870400
   0.19451700  0.53461600  0.52870400
   0.53461600  0.30548300  0.77870400
   0.30548300  0.96538400  0.02870400
   0.05496300  0.10244300  0.09066700
   0.89755700  0.55496300  0.34066700
   0.44503700  0.39755700  0.59066700
   0.60244300  0.94503700  0.84066700
   0.55496300  0.89755700  0.15933300
   0.39755700  0.44503700  0.90933300
   0.94503700  0.60244300  0.65933300
   0.10244300  0.05496300  0.40933300
   0.94503700  0.39755700  0.15933300
   0.10244300  0.94503700  0.90933300
   0.55496300  0.10244300  0.65933300
   0.39755700  0.55496300  0.40933300
   0.44503700  0.60244300  0.09066700
   0.60244300  0.05496300  0.34066700
   0.05496300  0.89755700  0.59066700
   0.89755700  0.44503700  0.84066700
   0.55496300  0.60244300  0.59066700
   0.39755700  0.05496300  0.84066700
   0.94503700  0.89755700  0.09066700
   0.10244300  0.44503700  0.34066700
   0.05496300  0.39755700  0.65933300
   0.89755700  0.94503700  0.40933300
   0.44503700  0.10244300  0.15933300
   0.60244300  0.55496300  0.90933300
   0.44503700  0.89755700  0.65933300
   0.60244300  0.44503700  0.40933300
   0.05496300  0.60244300  0.15933300
   0.89755700  0.05496300  0.90933300
   0.94503700  0.10244300  0.59066700
   0.10244300  0.55496300  0.84066700
   0.55496300  0.39755700  0.09066700
   0.39755700  0.94503700  0.34066700
   0.15082300  0.22322700  0.57123600
   0.77677300  0.65082300  0.82123600
   0.34917700  0.27677300  0.07123600
   0.72322700  0.84917700  0.32123600
   0.65082300  0.77677300  0.67876400
   0.27677300  0.34917700  0.42876400
   0.84917700  0.72322700  0.17876400
   0.22322700  0.15082300  0.92876400
   0.84917700  0.27677300  0.67876400
   0.22322700  0.84917700  0.42876400
   0.65082300  0.22322700  0.17876400
   0.27677300  0.65082300  0.92876400
   0.34917700  0.72322700  0.57123600
   0.72322700  0.15082300  0.82123600
   0.15082300  0.77677300  0.07123600
   0.77677300  0.34917700  0.32123600
   0.65082300  0.72322700  0.07123600
   0.27677300  0.15082300  0.32123600
   0.84917700  0.77677300  0.57123600
   0.22322700  0.34917700  0.82123600
   0.15082300  0.27677300  0.17876400
   0.77677300  0.84917700  0.92876400
   0.34917700  0.22322700  0.67876400
   0.72322700  0.65082300  0.42876400
   0.34917700  0.77677300  0.17876400
   0.72322700  0.34917700  0.92876400
   0.15082300  0.72322700  0.67876400
   0.77677300  0.15082300  0.42876400
   0.84917700  0.22322700  0.07123600
   0.22322700  0.65082300  0.32123600
   0.65082300  0.27677300  0.57123600
   0.27677300  0.84917700  0.82123600
Direct configuration=     2
   0.00005079  0.25012352  0.12493068
   0.74994592  0.49985808  0.37527375
   0.50002387  0.24997985  0.62494282
   0.74997153  0.00006705  0.87488014
   0.49991969  0.75003488  0.12504619
   0.24988115  0.49997953  0.87508346
   0.00016795  0.74989585  0.62496897
   0.24986943 -0.00012426  0.37474579
   0.25002900  0.00005995  0.87507047
   0.25005540  0.49992440  0.37510808
   0.75010525 -0.00007742  0.37515770
   0.75006609  0.50019431  0.87490956
   0.50011189  0.74997155  0.62493158
   0.00000924  0.75006526  0.12507341
   0.00007307  0.25018419  0.62482656
   0.49994500  0.24999356  0.12497204
   0.08022415  0.16323768  0.93077909
   0.83666632  0.58093012  0.18009320
   0.42084894  0.33759184  0.43026881
   0.66243313  0.91921688  0.68214373
   0.57964896  0.83701129  0.31963557
   0.33757316  0.41943885  0.06757316
   0.92000870  0.66226570  0.81856102
   0.16199935  0.08041683  0.56872823
   0.91921820  0.33796960  0.31978991
   0.16227408  0.91865170  0.06929977
   0.58099857  0.16242083  0.81860737
   0.33668572  0.58087338  0.56865334
   0.41942342  0.66300794  0.93064293
   0.66290371  0.08012152  0.18076935
   0.08002191  0.83676960  0.43128389
   0.83757713  0.41909055  0.68054970
   0.58125931  0.66237750  0.43055877
   0.33780767  0.08123403  0.68094642
   0.92061470  0.83711799  0.93130543
   0.16260341  0.41901647  0.18102202
   0.08006334  0.33775298  0.81932775
   0.83701277  0.91901036  0.57032950
   0.41850169  0.16336555  0.31922120
   0.66238657  0.58061176  0.06939259
   0.41944645  0.83837961  0.81918276
   0.66263034  0.41942852  0.56897605
   0.08073954  0.66272333  0.31854043
   0.83785945  0.08100062  0.06935098
   0.91976703  0.16217856  0.43051391
   0.16237567  0.57967741  0.68088966
   0.58060947  0.33774667  0.93118674
   0.33718903  0.91981882  0.18069220
   0.18166923  0.18149458  0.74975487
   0.81847453  0.68124954 -0.00060227
   0.31813499  0.31847280  0.24955551
   0.68186901  0.81876860  0.49977751
   0.81856540  0.31855379  0.50001502
   0.18099171  0.81871762  0.25039555
   0.68122497  0.18104585  0.00012883
   0.31887099  0.68143749  0.75064624
   0.68133216  0.68114069  0.25047462
   0.31886767  0.18075916  0.49974208
   0.81915618  0.81854028  0.74996415
   0.18196849  0.31948993 -0.00025812
   0.31856946  0.81944492  0.00077299
   0.68169216  0.31884071  0.74978747
   0.18238709  0.68086138  0.50046184
   0.81923028  0.18092747  0.25019597
  -0.00035739  0.00097347 -0.00034864
  -0.00032884  0.50036184  0.24996178
   0.50027175  0.50073742  0.50017969
   0.49995822 -0.00021799  0.74984790
   0.49948846  0.00036505  0.24943149
   0.50008254  0.49989161 -0.00067711
  -0.00005530  0.49919349  0.75061128
  -0.00025575 -0.00029190  0.49989451
   0.12729954  0.24990393  0.37502347
   0.74996394  0.62721873  0.62507808
   0.37257509  0.24990355  0.87493927
   0.75008966  0.87257679  0.12505230
   0.62736610  0.74983465  0.87512912
   0.24999335  0.37263684  0.62515977
   0.87264949  0.74996915  0.37493574
   0.24997365  0.12738985  0.12495336
   0.87275070  0.25002488  0.87485447
   0.24996775  0.87267877  0.62502412
   0.62724147  0.24995554  0.37493764
   0.24980625  0.62737333  0.12506265
   0.37266196  0.75029697  0.37478181
   0.74983828  0.12736433  0.62501547
   0.12730893  0.75011942  0.87497479
   0.75010515  0.37267796  0.12500315
  -0.00011277  0.00009955  0.25005648
  -0.00000074  0.50007511  0.50009094
   0.49999999  0.50002640  0.74988942
   0.50006185 -0.00003285  0.00006159
   0.00000586  0.50000219  0.00016113
   0.00005004  0.00002562  0.75007610
   0.49982968 -0.00003299  0.49980752
   0.50012159  0.50006929  0.25006154
   0.03502067  0.19458792  0.77835075
   0.80536829  0.53505693  0.02870197
   0.46542816  0.30477627  0.27917949
   0.69465817  0.96541178  0.52869944
   0.53470252  0.80495869  0.47112208
   0.30533858  0.46563473  0.22119586
   0.96540537  0.69440432  0.97091326
   0.19464577  0.03407233  0.72110786
   0.96517719  0.30556825  0.47149949
   0.19428806  0.96477621  0.22159677
   0.53467712  0.19402051  0.97121440
   0.30507939  0.53490467  0.72122552
   0.46508788  0.69452626  0.77884920
   0.69433524  0.03420079  0.02842545
   0.03427837  0.80542377  0.27828444
   0.80566384  0.46496070  0.52850483
   0.53459409  0.69469425  0.27870440
   0.30540200  0.03407837  0.52886513
   0.96521022  0.80576078  0.77815062
   0.19505792  0.46519772  0.02844883
   0.03433954  0.30528997  0.97140213
   0.80505996  0.96534645  0.72110674
   0.46561467  0.19463127  0.47161934
   0.69450567  0.53458424  0.22132506
   0.46558782  0.80551789  0.97089072
   0.69441648  0.46525375  0.72173944
   0.03472219  0.69442916  0.47137837
   0.80590796  0.03422247  0.22104456
   0.96546951  0.19415382  0.27912142
   0.19423233  0.53507669  0.52833655
   0.53445013  0.30547542  0.77901244
   0.30520915  0.96543031  0.02958599
   0.05514312  0.10241930  0.09049569
   0.89759077  0.55450864  0.34062931
   0.44442093  0.39725881  0.59097087
   0.60261057  0.94527300  0.84048479
   0.55516029  0.89733408  0.15907133
   0.39692734  0.44517232  0.90936353
   0.94505310  0.60259590  0.65918393
   0.10269363  0.05481169  0.40952380
   0.94481370  0.39794158  0.15908053
   0.10223436  0.94533534  0.90947582
   0.55459881  0.10275884  0.65912201
   0.39787128  0.55468943  0.40938453
   0.44455957  0.60268777  0.09071375
   0.60290450  0.05409434  0.34093104
   0.05500146  0.89740514  0.59023288
   0.89775491  0.44534159  0.84078205
   0.55521296  0.60262090  0.59028801
   0.39774835  0.05506140  0.84061993
   0.94484857  0.89767151  0.09096330
   0.10267493  0.44493066  0.34071138
   0.05449068  0.39743176  0.65907358
   0.89809523  0.94506908  0.40928343
   0.44536317  0.10245040  0.15956933
   0.60255769  0.55496786  0.90930801
   0.44467858  0.89741016  0.65933327
   0.60227317  0.44502717  0.40929771
   0.05526155  0.60249245  0.15961579
   0.89796267  0.05529204  0.90884583
   0.94560484  0.10240759  0.59064652
   0.10300284  0.55488263  0.84035842
   0.55500986  0.39675495  0.09114944
   0.39798759  0.94504629  0.34060087
   0.15099759  0.22314329  0.57193427
   0.77762531  0.65113290  0.82133548
   0.34912257  0.27680502  0.07149023
   0.72297152  0.84932909  0.32085621
   0.65071238  0.77692032  0.67864852
   0.27733009  0.34949966  0.42882014
   0.84920275  0.72380700  0.17856299
   0.22293729  0.15087365  0.92916402
   0.84958444  0.27676977  0.67887223
   0.22270315  0.84987251  0.42854817
   0.65100737  0.22339631  0.17921893
   0.27693343  0.65099965  0.92824136
   0.34924711  0.72297573  0.57109998
   0.72395150  0.15099488  0.82147184
   0.15069881  0.77656813  0.07120514
   0.77625542  0.34902228  0.32102832
   0.65098162  0.72355355  0.07153588
   0.27708472  0.15069561  0.32146306
   0.84870388  0.77646791  0.57133191
   0.22284930  0.34918819  0.82139095
   0.15076932  0.27680106  0.17818067
   0.77710969  0.84939363  0.92871941
   0.34882032  0.22342604  0.67884368
   0.72389467  0.65098402  0.42926096
   0.34888995  0.77716275  0.17881747
   0.72309398  0.34972659  0.92901539
   0.15066871  0.72300683  0.67851637
   0.77640692  0.15009374  0.42881944
   0.84930107  0.22305622  0.07104423
   0.22352587  0.65037796  0.32121687
   0.65034768  0.27678284  0.57132368
   0.27735907  0.84896437  0.82127465
Direct configuration=     3
   0.00010151  0.25024672  0.12486143
   0.74989223  0.49971626  0.37554694
   0.50004715  0.24996006  0.62488598
   0.74994362  0.00013360  0.87476080
   0.49983945  0.75007010  0.12509211
   0.24976242  0.49995974  0.87516617
   0.00033588  0.74979194  0.62493764
   0.24973890 -0.00024875  0.37449218
   0.25005773  0.00011972  0.87514083
   0.25011113  0.49984855  0.37521579
   0.75021040 -0.00015542  0.37531523
   0.75013247  0.50038865  0.87481950
   0.50022339  0.74994317  0.62486320
   0.00001811  0.75013064  0.12514657
   0.00014638  0.25036765  0.62465351
   0.49989024  0.24998651  0.12494450
   0.07993772  0.16401082  0.93070147
   0.83579586  0.58134742  0.17933290
   0.42220214  0.33764782  0.42968611
   0.66240373  0.91894842  0.68342610
   0.57879115  0.83648992  0.32012434
   0.33761010  0.41939348  0.06600948
   0.92053087  0.66206982  0.81797871
   0.16153757  0.08031832  0.56831291
   0.91895024  0.33839922  0.32043296
   0.16208562  0.91782358  0.06945533
   0.58148190  0.16238061  0.81807340
   0.33583648  0.58123064  0.56816646
   0.41935836  0.66355469  0.93043051
   0.66334447  0.07973189  0.18068423
   0.07953276  0.83600515  0.43171114
   0.83761652  0.41869739  0.68024494
   0.58200125  0.66229570  0.43026511
   0.33807461  0.08194845  0.68103625
   0.92173439  0.83670140  0.93175242
   0.16274623  0.41855152  0.18118842
   0.07961572  0.33796506  0.81950938
   0.83648726  0.91853541  0.57151060
   0.41752430  0.16426716  0.31929840
   0.66231245  0.58071177  0.06963930
   0.41940938  0.83921623  0.81921927
   0.66279751  0.41937018  0.56880890
   0.08096664  0.66298269  0.31794041
   0.83817803  0.08148177  0.06955619
   0.92004455  0.16189504  0.43017593
   0.16228896  0.57884750  0.68092515
   0.58070532  0.33795167  0.93151595
   0.33684012  0.92014940  0.18053087
   0.18211709  0.18176967  0.74950749
   0.81817045  0.68128339 -0.00120639
   0.31749290  0.31816804  0.24911123
   0.68251646  0.81875529  0.49955682
   0.81835091  0.31832524  0.50003016
   0.18076637  0.81865437  0.25079201
   0.68123179  0.18087301  0.00025738
   0.31895835  0.68165557  0.75129274
   0.68144480  0.68106687  0.25094691
   0.31895327  0.18030264  0.49948521
   0.81952840  0.81829895  0.74993050
   0.18271306  0.32019156 -0.00051641
   0.31836007  0.82010322  0.00154416
   0.68216155  0.31889924  0.74957697
   0.18354783  0.68050854  0.50092362
   0.81967542  0.18063679  0.25039155
  -0.00071224  0.00194026 -0.00069330
  -0.00065427  0.50072115  0.24992419
   0.50053855  0.50146871  0.50035990
   0.49991619 -0.00043371  0.74969502
   0.49898385  0.00072654  0.24886899
   0.50016301  0.49978430 -0.00134629
  -0.00010964  0.49839479  0.75121556
  -0.00050881 -0.00058335  0.49979044
   0.12722957  0.24980795  0.37504713
   0.74992804  0.62706807  0.62515619
   0.37252003  0.24980711  0.87487845
   0.75017931  0.87252347  0.12510456
   0.62736254  0.74966952  0.87525820
   0.24998694  0.37264341  0.62531936
   0.87266877  0.74993847  0.37487155
   0.24994717  0.12740978  0.12490659
   0.87287116  0.25004968  0.87470900
   0.24993554  0.87272734  0.62504817
   0.62711323  0.24991076  0.37487506
   0.24961275  0.62737680  0.12512528
   0.37269360  0.75059381  0.37456380
   0.74967673  0.12735866  0.62503081
   0.12724844  0.75023864  0.87494942
   0.75021024  0.37272553  0.12500632
  -0.00022554  0.00019887  0.25011292
  -0.00000132  0.50015038  0.50018180
   0.49999968  0.50005279  0.74977874
   0.50012387 -0.00006567  0.00012323
   0.00001167  0.50000456  0.00032223
   0.00010015  0.00005133  0.75015201
   0.49965947 -0.00006605  0.49961497
   0.50024279  0.50013856  0.25012309
   0.03542356  0.19466388  0.77799155
   0.80524933  0.53549644  0.02869161
   0.46547222  0.30406745  0.27964377
   0.69480339  0.96543946  0.52868816
   0.53478862  0.80443143  0.47095750
   0.30519076  0.46588400  0.22110357
   0.96542875  0.69429596  0.97054075
   0.19477935  0.03353010  0.72093168
   0.96497118  0.30564868  0.47170835
   0.19406376  0.96417144  0.22190461
   0.53473751  0.19353017  0.97114261
   0.30467309  0.53519080  0.72116279
   0.46479552  0.69453928  0.77898422
   0.69415847  0.03378808  0.02813964
   0.03394213  0.80535902  0.27785888
   0.80583831  0.46453811  0.52829869
   0.53457194  0.69487413  0.27869608
   0.30531793  0.03354272  0.52901655
   0.96503890  0.80603380  0.77759170
   0.19560003  0.46501255  0.02818744
   0.03406417  0.30509452  0.97151646
   0.80463344  0.96530984  0.72092679
   0.46584450  0.19474847  0.47194893
   0.69449795  0.53455288  0.22136347
   0.46579175  0.80554899  0.97049679
   0.69432087  0.46512420  0.72218780
   0.03482780  0.69434549  0.47146707
   0.80632804  0.03383108  0.22080268
   0.96555619  0.19379767  0.27952814
   0.19395244  0.53553441  0.52796283
   0.53428505  0.30546382  0.77931172
   0.30493114  0.96547815  0.03045440
   0.05531784  0.10240825  0.09032785
   0.89761290  0.55405054  0.34059406
   0.44381212  0.39695462  0.59127590
   0.60278726  0.94551281  0.84030313
   0.55535105  0.89710323  0.15880811
   0.39629341  0.44530983  0.90939344
   0.94507333  0.60275515  0.65903488
   0.10295325  0.05465913  0.40971240
   0.94459532  0.39831437  0.15882624
   0.10203760  0.94563595  0.90961597
   0.55423209  0.10308171  0.65891180
   0.39817541  0.55441272  0.40943328
   0.44408890  0.60294025  0.09076132
   0.60337246  0.05322366  0.34119490
   0.05503550  0.89724301  0.58980177
   0.89794268  0.44564891  0.84089980
   0.55546009  0.60280708  0.58991317
   0.39792745  0.05515503  0.84057570
   0.94466692  0.89777634  0.09125873
   0.10291427  0.44482676  0.34075657
   0.05401562  0.39729979  0.65881368
   0.89862168  0.94510392  0.40923071
   0.44569151  0.10246785  0.15980218
   0.60268149  0.55496939  0.90928135
   0.44432609  0.89725385  0.65933147
   0.60211368  0.44502189  0.40926162
   0.05555522  0.60255184  0.15989561
   0.89835679  0.05561746  0.90835673
   0.94617476  0.10238187  0.59062767
   0.10356713  0.55479806  0.84005216
   0.55505199  0.39594964  0.09162975
   0.39840652  0.94505888  0.34053719
   0.15116231  0.22306080  0.57263140
   0.77847296  0.65143131  0.82143768
   0.34907830  0.27683647  0.07174633
   0.72271726  0.84948838  0.32048157
   0.65059181  0.77706529  0.67853212
   0.27788510  0.34982929  0.42887342
   0.84923853  0.72438323  0.17836077
   0.22265049  0.15091295  0.92955963
   0.84999781  0.27676590  0.67897766
   0.22218173  0.85057316  0.42832930
   0.65118132  0.22356379  0.17966958
   0.27709146  0.65116609  0.92771775
   0.34932631  0.72272674  0.57096501
   0.72467307  0.15115788  0.82170856
   0.15056501  0.77636271  0.07117594
   0.77573976  0.34887843  0.32082528
   0.65112865  0.72387727  0.07183662
   0.27739206  0.15056056  0.32169168
   0.84824210  0.77616277  0.57143014
   0.22247262  0.34920816  0.82154877
   0.15070604  0.27682829  0.17759778
   0.77744603  0.84961944  0.92867121
   0.34847440  0.22362518  0.67892212
   0.72456074  0.65113266  0.42975278
   0.34861442  0.77755113  0.17886744
   0.72296286  0.35028472  0.92926365
   0.15050492  0.72278688  0.67826749
   0.77604380  0.14936001  0.42887339
   0.84943513  0.22288761  0.07085629
   0.22382437  0.64992723  0.32120004
   0.64986634  0.27679344  0.57141416
   0.27794027  0.84876505  0.82131786
Direct configuration=     4
   0.00015211  0.25036928  0.12479226
   0.74983930  0.49957462  0.37581906
   0.50006925  0.24994098  0.62482977
   0.74991680  0.00019913  0.87464246
   0.49975934  0.75010599  0.12513749
   0.24964389  0.49994129  0.87524739
   0.00050380  0.74968845  0.62490570
   0.24960844 -0.00037367  0.37423971
   0.25008592  0.00017914  0.87521096
   0.25016755  0.49977222  0.37532279
   0.75031542 -0.00023462  0.37547247
   0.75019945  0.50058308  0.87473019
   0.50033415  0.74991490  0.62479484
   0.00002622  0.75019628  0.12521926
   0.00022017  0.25054964  0.62448119
   0.49983589  0.24997820  0.12491782
   0.07965917  0.16478194  0.93062225
   0.83492481  0.58176818  0.17857726
   0.42353421  0.33770506  0.42911239
   0.66237626  0.91868011  0.68469798
   0.57794899  0.83597601  0.32060760
   0.33764757  0.41935034  0.06445996
   0.92105092  0.66187768  0.81739777
   0.16108055  0.08021839  0.56789864
   0.91868084  0.33882212  0.32107065
   0.16189910  0.91700688  0.06961071
   0.58196378  0.16234521  0.81754487
   0.33499040  0.58158455  0.56768724
   0.41928739  0.66410603  0.93021933
   0.66378652  0.07934881  0.18060196
   0.07905063  0.83524554  0.43213694
   0.83765341  0.41830769  0.67994304
   0.58273752  0.66222219  0.42997839
   0.33833327  0.08265269  0.68112484
   0.92283491  0.83628869  0.93219445
   0.16289492  0.41809470  0.18135547
   0.07917528  0.33816831  0.81968695
   0.83595800  0.91806077  0.57268341
   0.41656014  0.16516779  0.31937590
   0.66224384  0.58081724  0.06988243
   0.41937633  0.84004014  0.81925155
   0.66296533  0.41930900  0.56864344
   0.08119787  0.66324104  0.31734749
   0.83848803  0.08195315  0.06975806
   0.92031412  0.16161433  0.42984615
   0.16220445  0.57803203  0.68096408
   0.58080309  0.33814645  0.93184212
   0.33648828  0.92047438  0.18037439
   0.18255144  0.18203505  0.74925555
   0.81787998  0.68131499 -0.00181431
   0.31686717  0.31787889  0.24866724
   0.68315024  0.81874904  0.49933972
   0.81814750  0.31810285  0.50004550
   0.18053603  0.81860022  0.25119032
   0.68123135  0.18069193  0.00038533
   0.31904926  0.68186408  0.75193977
   0.68154755  0.68099306  0.25141458
   0.31904562  0.17984374  0.49923046
   0.81990350  0.81806525  0.74990121
   0.18343924  0.32088737 -0.00077503
   0.31816365  0.82075922  0.00231185
   0.68261482  0.31896433  0.74937039
   0.18468554  0.68015675  0.50138522
   0.82012116  0.18033898  0.25058626
  -0.00106199  0.00289394 -0.00103018
  -0.00097306  0.50107558  0.24988771
   0.50079579  0.50218795  0.50054079
   0.49987367 -0.00064504  0.74954053
   0.49849306  0.00108074  0.24831852
   0.50023921  0.49967935 -0.00200031
  -0.00016181  0.49761138  0.75180602
  -0.00075652 -0.00087392  0.49968927
   0.12716030  0.24971214  0.37507116
   0.74989242  0.62691835  0.62523435
   0.37246492  0.24971063  0.87481745
   0.75026896  0.87247018  0.12515676
   0.62735937  0.74950481  0.87538720
   0.24998098  0.37264972  0.62547861
   0.87268788  0.74990812  0.37480748
   0.24992042  0.12742958  0.12485956
   0.87299139  0.25007434  0.87456361
   0.24990341  0.87277575  0.62507207
   0.62698531  0.24986535  0.37481202
   0.24941971  0.62738028  0.12518789
   0.37272482  0.75089043  0.37434610
   0.74951550  0.12735273  0.62504587
   0.12718883  0.75035751  0.87492375
   0.75031526  0.37277260  0.12500954
  -0.00033833  0.00029775  0.25016931
  -0.00000161  0.50022599  0.50027250
   0.49999877  0.50007914  0.74966788
   0.50018624 -0.00009843  0.00018497
   0.00001738  0.50000725  0.00048327
   0.00015040  0.00007722  0.75022752
   0.49948947 -0.00009927  0.49942226
   0.50036323  0.50020781  0.25018467
   0.03582336  0.19474555  0.77762903
   0.80512621  0.53593359  0.02867323
   0.46551578  0.30335886  0.28009420
   0.69495239  0.96546657  0.52867199
   0.53487427  0.80390251  0.47080294
   0.30504048  0.46613001  0.22101849
   0.96545571  0.69419180  0.97017995
   0.19491817  0.03299098  0.72077073
   0.96476628  0.30572388  0.47191936
   0.19384434  0.96357218  0.22221794
   0.53479691  0.19304772  0.97108180
   0.30426574  0.53547236  0.72110693
   0.46451022  0.69455535  0.77910757
   0.69398727  0.03338063  0.02784788
   0.03360908  0.80528763  0.27742996
   0.80600450  0.46411641  0.52808721
   0.53454968  0.69505489  0.27867896
   0.30523210  0.03301131  0.52915718
   0.96487210  0.80630174  0.77703027
   0.19614022  0.46482924  0.02792228
   0.03379123  0.30489861  0.97163854
   0.80420422  0.96527474  0.72075690
   0.46607231  0.19486719  0.47228245
   0.69449309  0.53452274  0.22141191
   0.46599556  0.80557689  0.97011680
   0.69423071  0.46499562  0.72263745
   0.03493254  0.69426576  0.47155982
   0.80674271  0.03344436  0.22057121
   0.96564479  0.19345107  0.27992222
   0.19367769  0.53598662  0.52758511
   0.53412193  0.30544855  0.77960142
   0.30464918  0.96552861  0.03130442
   0.05548597  0.10241264  0.09016512
   0.89762152  0.55358907  0.34056196
   0.44321345  0.39664802  0.59158164
   0.60297241  0.94575609  0.84012081
   0.55553300  0.89686631  0.15854353
   0.39566094  0.44544757  0.90942384
   0.94509755  0.60291739  0.65888755
   0.10322108  0.05450821  0.40989840
   0.94438260  0.39867346  0.15857003
   0.10185475  0.94593700  0.90975262
   0.55386443  0.10340883  0.65870494
   0.39846903  0.55413387  0.40947826
   0.44362749  0.60319847  0.09080881
   0.60384356  0.05235315  0.34145664
   0.05506488  0.89707012  0.58937487
   0.89811988  0.44595753  0.84102124
   0.55570575  0.60300008  0.58954478
   0.39809190  0.05524332  0.84053535
   0.94449456  0.89787158  0.09155078
   0.10315865  0.44472361  0.34080165
   0.05353922  0.39716418  0.65855460
   0.89913436  0.94514011  0.40917330
   0.44602008  0.10249570  0.16002982
   0.60281373  0.55496840  0.90925315
   0.44398130  0.89708837  0.65932729
   0.60196511  0.44502146  0.40922569
   0.05584326  0.60262128  0.16017131
   0.89873757  0.05593988  0.90786555
   0.94674473  0.10236578  0.59061027
   0.10413041  0.55470928  0.83974870
   0.55508903  0.39514751  0.09210417
   0.39881195  0.94507391  0.34047659
   0.15131749  0.22298023  0.57332371
   0.77931176  0.65171685  0.82154255
   0.34904423  0.27686724  0.07200338
   0.72246512  0.84965195  0.32011440
   0.65046147  0.77720601  0.67841665
   0.27843636  0.35016288  0.42892375
   0.84928421  0.72495152  0.17815892
   0.22236904  0.15093970  0.92994924
   0.85041293  0.27676117  0.67908027
   0.22166461  0.85127402  0.42810716
   0.65134458  0.22372728  0.18011451
   0.27724519  0.65132229  0.92719485
   0.34941357  0.72248192  0.57082941
   0.72538838  0.15131321  0.82194428
   0.15042208  0.77615658  0.07114725
   0.77522832  0.34874624  0.32062872
   0.65126264  0.72419495  0.07213633
   0.27769098  0.15042023  0.32192074
   0.84779278  0.77585797  0.57153021
   0.22209758  0.34923556  0.82170954
   0.15063372  0.27685434  0.17701843
   0.77778200  0.84985352  0.92861859
   0.34813984  0.22382410  0.67900089
   0.72522319  0.65126662  0.43023709
   0.34835172  0.77793720  0.17891320
   0.72283502  0.35084985  0.92950849
   0.15033226  0.72256701  0.67801884
   0.77568691  0.14862759  0.42892714
   0.84957901  0.22272302  0.07067320
   0.22412175  0.64947524  0.32118500
   0.64938311  0.27680598  0.57150744
   0.27851221  0.84858211  0.82136739
Direct configuration=     5
   0.00020253  0.25049094  0.12472318
   0.74978750  0.49943320  0.37608963
   0.50008957  0.24992299  0.62477449
   0.74989160  0.00026318  0.87452556
   0.49967941  0.75014287  0.12518210
   0.24952563  0.49992484  0.87532638
   0.00067176  0.74958557  0.62487284
   0.24947804 -0.00049923  0.37398886
   0.25011330  0.00023805  0.87528078
   0.25022501  0.49969512  0.37542878
   0.75042027 -0.00031568  0.37562932
   0.75026738  0.50077769  0.87464199