 running  128 mpi-ranks, on    1 nodes
 distrk:  each k-point on  128 cores,    1 groups
 distr:  one band on    1 cores,  128 groups
 vasp.6.4.0 14Feb23 (build Mar 16 2023 23:21:51) complex                         
 POSCAR found type information on POSCAR LiAgO 
 POSCAR found :  3 types and      55 ions
 Reading from existing POTCAR
 scaLAPACK will be used selectively (only on CPU)
 -----------------------------------------------------------------------------
|                                                                             |
|           W    W    AA    RRRRR   N    N  II  N    N   GGGG   !!!           |
|           W    W   A  A   R    R  NN   N  II  NN   N  G    G  !!!           |
|           W    W  A    A  R    R  N N  N  II  N N  N  G       !!!           |
|           W WW W  AAAAAA  RRRRR   N  N N  II  N  N N  G  GGG   !            |
|           WW  WW  A    A  R   R   N   NN  II  N   NN  G    G                |
|           W    W  A    A  R    R  N    N  II  N    N   GGGG   !!!           |
|                                                                             |
|     For optimal performance we recommend to set                             |
|       NCORE = 2 up to number-of-cores-per-socket                            |
|     NCORE specifies how many cores store one orbital (NPAR=cpu/NCORE).      |
|     This setting can greatly improve the performance of VASP for DFT.       |
|     The default, NCORE=1 might be grossly inefficient on modern             |
|     multi-core architectures or massively parallel machines. Do your        |
|     own testing! More info at https://www.vasp.at/wiki/index.php/NCORE      |
|     Unfortunately you need to use the default for GW and RPA                |
|     calculations (for HF NCORE is supported but not extensively tested      |
|     yet).                                                                   |
|                                                                             |
 -----------------------------------------------------------------------------

 Reading from existing POTCAR
 LDA part: xc-table for Pade appr. of Perdew
 POSCAR found type information on POSCAR LiAgO 
 POSCAR found :  3 types and      55 ions
 Machine learning selected
 Setting communicators for machine learning
 Initializing machine learning
 ML_MB is set to:             1500
 ML_MCONF is set to:          1500
 POSCAR, INCAR and KPOINTS ok, starting setup
 FFT: planning ... GRIDC
 FFT: planning ... GRID_SOFT
 FFT: planning ... GRID
 WAVECAR not read
 entering main loop
       N       E                     dE             d eps       ncg     rms          rms(c)
DAV:   1     0.277283680462E+04    0.27728E+04   -0.22283E+05   768   0.104E+03
DAV:   2    -0.125733929651E+03   -0.28986E+04   -0.26954E+04   896   0.264E+02
DAV:   3    -0.229501760269E+03   -0.10377E+03   -0.10312E+03  1280   0.528E+01
DAV:   4    -0.229898439530E+03   -0.39668E+00   -0.39597E+00   896   0.300E+00
DAV:   5    -0.229899723771E+03   -0.12842E-02   -0.12842E-02  1024   0.153E-01    0.625E+01
DAV:   6    -0.191755615656E+03    0.38144E+02   -0.10830E+02  1024   0.296E+01    0.393E+01
DAV:   7    -0.189896612637E+03    0.18590E+01   -0.18595E+01   768   0.107E+01    0.256E+01
DAV:   8    -0.189816287705E+03    0.80325E-01   -0.53066E+00  1024   0.443E+00    0.607E+00
DAV:   9    -0.189494846846E+03    0.32144E+00   -0.77365E-01   896   0.302E+00    0.169E+00
DAV:  10    -0.189495387343E+03   -0.54050E-03   -0.24055E-01   896   0.117E+00    0.762E-01
DAV:  11    -0.189495479808E+03   -0.92465E-04   -0.16310E-02  1024   0.337E-01    0.573E-01
DAV:  12    -0.189495335322E+03    0.14449E-03   -0.17078E-03  1024   0.118E-01    0.223E-01
DAV:  13    -0.189495304539E+03    0.30783E-04   -0.70369E-04   896   0.730E-02    0.505E-02
DAV:  14    -0.189495294565E+03    0.99743E-05   -0.18118E-04  1024   0.387E-02    0.268E-02
DAV:  15    -0.189495288160E+03    0.64045E-05   -0.35179E-05   640   0.191E-02
      1 T=   299. E= -.18740491E+03 F= -.18949529E+03 E0= -.18944478E+03  EK= 0.20904E+01 SP= 0.00E+00 SK= 0.00E+00
 bond charge predicted
       N       E                     dE             d eps       ncg     rms          rms(c)
DAV:   1    -0.189470702724E+03    0.24592E-01   -0.60689E+00   768   0.391E+00    0.522E-01
DAV:   2    -0.189479875967E+03   -0.91732E-02   -0.99634E-02  1024   0.496E-01    0.287E-01
DAV:   3    -0.189479586148E+03    0.28982E-03   -0.75627E-04   768   0.770E-02    0.131E-01
DAV:   4    -0.189479536892E+03    0.49256E-04   -0.50908E-04  1024   0.695E-02    0.752E-02
DAV:   5    -0.189479532282E+03    0.46101E-05   -0.17016E-04   896   0.424E-02    0.220E-02
DAV:   6    -0.189479531456E+03    0.82614E-06   -0.19870E-05   896   0.132E-02
      2 T=   298. E= -.18740131E+03 F= -.18947953E+03 E0= -.18942905E+03  EK= 0.20783E+01 SP= -.81E-04 SK= 0.26E-06
 bond charge predicted
       N       E                     dE             d eps       ncg     rms          rms(c)
DAV:   1    -0.189454998678E+03    0.24534E-01   -0.61578E+00   768   0.394E+00    0.525E-01
DAV:   2    -0.189464293059E+03   -0.92944E-02   -0.10084E-01   768   0.501E-01    0.286E-01
DAV:   3    -0.189464015267E+03    0.27779E-03   -0.79748E-04  1024   0.768E-02    0.131E-01
DAV:   4    -0.189463968472E+03    0.46795E-04   -0.48686E-04   768   0.670E-02    0.727E-02
DAV:   5    -0.189463965904E+03    0.25685E-05   -0.15820E-04  1024   0.408E-02    0.215E-02
DAV:   6    -0.189463964894E+03    0.10092E-05   -0.18778E-05   768   0.133E-02
      3 T=   296. E= -.18740135E+03 F= -.18946396E+03 E0= -.18941351E+03  EK= 0.20631E+01 SP= -.52E-03 SK= 0.48E-05
 bond charge predicted
       N       E                     dE             d eps       ncg     rms          rms(c)
DAV:   1    -0.189439318202E+03    0.24648E-01   -0.62645E+00   768   0.397E+00    0.524E-01
DAV:   2    -0.189448567996E+03   -0.92498E-02   -0.10039E-01   768   0.504E-01    0.284E-01
DAV:   3    -0.189448297510E+03    0.27049E-03   -0.83778E-04  1024   0.776E-02    0.131E-01
DAV:   4    -0.189448252907E+03    0.44603E-04   -0.48538E-04   768   0.669E-02    0.718E-02
DAV:   5    -0.189448250861E+03    0.20457E-05   -0.15684E-04  1024   0.407E-02    0.211E-02
DAV:   6    -0.189448249784E+03    0.10773E-05   -0.18739E-05   768   0.133E-02
      4 T=   293. E= -.18740140E+03 F= -.18944825E+03 E0= -.18939783E+03  EK= 0.20485E+01 SP= -.17E-02 SK= 0.25E-04
 bond charge predicted
       N       E                     dE             d eps       ncg     rms          rms(c)
DAV:   1    -0.189423226295E+03    0.25025E-01   -0.63842E+00   768   0.399E+00    0.520E-01
DAV:   2    -0.189432309340E+03   -0.90830E-02   -0.98648E-02   768   0.504E-01    0.280E-01
DAV:   3    -0.189432047967E+03    0.26137E-03   -0.85726E-04  1024   0.775E-02    0.129E-01
DAV:   4    -0.189432005943E+03    0.42024E-04   -0.47680E-04   768   0.661E-02    0.702E-02
DAV:   5    -0.189432004508E+03    0.14348E-05   -0.15327E-04  1024   0.402E-02    0.207E-02
DAV:   6    -0.189432003394E+03    0.11141E-05   -0.18302E-05   768   0.132E-02
      5 T=   291. E= -.18740146E+03 F= -.18943200E+03 E0= -.18938162E+03  EK= 0.20344E+01 SP= -.39E-02 SK= 0.81E-04
 bond charge predicted
       N       E                     dE             d eps       ncg     rms          rms(c)
DAV:   1    -0.189406388344E+03    0.25616E-01   -0.65076E+00   768   0.400E+00    0.513E-01
DAV:   2    -0.189415196249E+03   -0.88079E-02   -0.95761E-02   768   0.503E-01    0.275E-01
DAV:   3    -0.189414947267E+03    0.24898E-03   -0.87408E-04  1152   0.768E-02    0.128E-01
DAV:   4    -0.189414906936E+03    0.40331E-04   -0.45360E-04   768   0.645E-02    0.675E-02
DAV:   5    -0.189414905811E+03    0.11248E-05   -0.15023E-04  1024   0.400E-02    0.197E-02
DAV:   6    -0.189414904687E+03    0.11247E-05   -0.18080E-05   640   0.132E-02
      6 T=   290. E= -.18740152E+03 F= -.18941490E+03 E0= -.18936456E+03  EK= 0.20208E+01 SP= -.76E-02 SK= 0.20E-03
 bond charge predicted
       N       E                     dE             d eps       ncg     rms          rms(c)
DAV:   1    -0.189388534068E+03    0.26372E-01   -0.66242E+00   768   0.398E+00    0.501E-01
DAV:   2    -0.189396991546E+03   -0.84575E-02   -0.92045E-02   768   0.499E-01    0.267E-01
DAV:   3    -0.189396757664E+03    0.23388E-03   -0.87188E-04  1152   0.760E-02    0.125E-01
DAV:   4    -0.189396720322E+03    0.37341E-04   -0.43631E-04   768   0.635E-02    0.655E-02
DAV:   5    -0.189396719441E+03    0.88132E-06   -0.14529E-04  1024   0.394E-02    0.191E-02
DAV:   6    -0.189396718374E+03    0.10674E-05   -0.17424E-05   640   0.130E-02
      7 T=   288. E= -.18740156E+03 F= -.18939672E+03 E0= -.18934641E+03  EK= 0.20079E+01 SP= -.13E-01 SK= 0.40E-03
 bond charge predicted
       N       E                     dE             d eps       ncg     rms          rms(c)
DAV:   1    -0.189369492086E+03    0.27227E-01   -0.67235E+00   768   0.395E+00    0.486E-01
DAV:   2    -0.189377564973E+03   -0.80729E-02   -0.87938E-02   768   0.493E-01    0.257E-01
DAV:   3    -0.189377348051E+03    0.21692E-03   -0.86564E-04  1152   0.747E-02    0.121E-01
DAV:   4    -0.189377313292E+03    0.34759E-04   -0.41387E-04   768   0.620E-02    0.630E-02
DAV:   5    -0.189377312824E+03    0.46791E-06   -0.13887E-04  1024   0.386E-02    0.184E-02
DAV:   6    -0.189377311804E+03    0.10199E-05   -0.16627E-05   640   0.127E-02
      8 T=   286. E= -.18740158E+03 F= -.18937731E+03 E0= -.18932705E+03  EK= 0.19957E+01 SP= -.21E-01 SK= 0.73E-03
 bond charge predicted
       N       E                     dE             d eps       ncg     rms          rms(c)
DAV:   1    -0.189349442780E+03    0.27870E-01   -0.67963E+00   768   0.391E+00    0.466E-01
DAV:   2    -0.189357098791E+03   -0.76560E-02   -0.83465E-02   768   0.485E-01    0.246E-01
DAV:   3    -0.189356901457E+03    0.19733E-03   -0.85726E-04  1152   0.733E-02    0.116E-01
DAV:   4    -0.189356869015E+03    0.32442E-04   -0.38686E-04   768   0.600E-02    0.603E-02
DAV:   5    -0.189356869070E+03   -0.54548E-07   -0.13111E-04  1024   0.375E-02    0.176E-02
DAV:   6    -0.189356868106E+03    0.96381E-06   -0.15722E-05   640   0.123E-02
      9 T=   284. E= -.18740156E+03 F= -.18935687E+03 E0= -.18930665E+03  EK= 0.19847E+01 SP= -.31E-01 SK= 0.12E-02
 bond charge predicted
       N       E                     dE             d eps       ncg     rms          rms(c)
DAV:   1    -0.189329122788E+03    0.27746E-01   -0.68406E+00   768   0.385E+00    0.443E-01
DAV:   2    -0.189336354443E+03   -0.72317E-02   -0.78872E-02   768   0.476E-01    0.232E-01
DAV:   3    -0.189336178162E+03    0.17628E-03   -0.84674E-04  1152   0.716E-02    0.110E-01
DAV:   4    -0.189336147507E+03    0.30655E-04   -0.35785E-04   768   0.578E-02    0.575E-02
DAV:   5    -0.189336148046E+03   -0.53894E-06   -0.12312E-04  1024   0.362E-02    0.168E-02
DAV:   6    -0.189336147153E+03    0.89218E-06   -0.14808E-05   512   0.119E-02
     10 T=   283. E= -.18740157E+03 F= -.18933615E+03 E0= -.18928596E+03  EK= 0.19759E+01 SP= -.43E-01 SK= 0.19E-02
 bond charge predicted
       N       E                     dE             d eps       ncg     rms          rms(c)
DAV:   1    -0.189309343238E+03    0.26805E-01   -0.68588E+00   768   0.378E+00    0.416E-01
DAV:   2    -0.189316150349E+03   -0.68071E-02   -0.74242E-02   768   0.465E-01    0.217E-01
DAV:   3    -0.189315995177E+03    0.15517E-03   -0.83263E-04  1152   0.697E-02    0.104E-01
DAV:   4    -0.189315965714E+03    0.29463E-04   -0.32825E-04   768   0.553E-02    0.547E-02
DAV:   5    -0.189315966586E+03   -0.87287E-06   -0.11542E-04  1024   0.350E-02    0.159E-02
DAV:   6    -0.189315965780E+03    0.80597E-06   -0.13952E-05   512   0.116E-02
     11 T=   282. E= -.18740157E+03 F= -.18931597E+03 E0= -.18926582E+03  EK= 0.19703E+01 SP= -.59E-01 SK= 0.28E-02
 bond charge predicted
       N       E                     dE             d eps       ncg     rms          rms(c)
DAV:   1    -0.189290922269E+03    0.25044E-01   -0.68512E+00   768   0.371E+00    0.387E-01
DAV:   2    -0.189297305469E+03   -0.63832E-02   -0.69609E-02   768   0.454E-01    0.202E-01
DAV:   3    -0.189297170310E+03    0.13516E-03   -0.81272E-04  1152   0.675E-02    0.976E-02
DAV:   4    -0.189297141288E+03    0.29022E-04   -0.29875E-04   768   0.527E-02    0.519E-02
DAV:   5    -0.189297142396E+03   -0.11084E-05   -0.10787E-04  1024   0.337E-02    0.150E-02
DAV:   6    -0.189297141674E+03    0.72242E-06   -0.13123E-05   512   0.112E-02
     12 T=   282. E= -.18740153E+03 F= -.18929714E+03 E0= -.18924702E+03  EK= 0.19690E+01 SP= -.77E-01 SK= 0.39E-02
     13 T=   282. E= -.18740131E+03 F= -.18927946E+03 E0= -.18927946E+03  EK= 0.19718E+01 SP= -.99E-01 SK= 0.52E-02
     14 T=   284. E= -.18740122E+03 F= -.18926389E+03 E0= -.18926389E+03  EK= 0.19795E+01 SP= -.12E+00 SK= 0.65E-02
     15 T=   286. E= -.18740113E+03 F= -.18925210E+03 E0= -.18925210E+03  EK= 0.19937E+01 SP= -.15E+00 SK= 0.79E-02
     16 T=   289. E= -.18740105E+03 F= -.18924525E+03 E0= -.18924525E+03  EK= 0.20154E+01 SP= -.18E+00 SK= 0.92E-02
     17 T=   293. E= -.18740098E+03 F= -.18924434E+03 E0= -.18924434E+03  EK= 0.20453E+01 SP= -.21E+00 SK= 0.10E-01
     18 T=   298. E= -.18740093E+03 F= -.18925019E+03 E0= -.18925019E+03  EK= 0.20835E+01 SP= -.24E+00 SK= 0.11E-01
     19 T=   305. E= -.18740091E+03 F= -.18926333E+03 E0= -.18926333E+03  EK= 0.21299E+01 SP= -.28E+00 SK= 0.10E-01
     20 T=   313. E= -.18740092E+03 F= -.18928400E+03 E0= -.18928400E+03  EK= 0.21837E+01 SP= -.31E+00 SK= 0.95E-02
     21 T=   321. E= -.18740097E+03 F= -.18931206E+03 E0= -.18931206E+03  EK= 0.22432E+01 SP= -.34E+00 SK= 0.78E-02
 bond charge predicted
       N       E                     dE             d eps       ncg     rms          rms(c)
DAV:   1    -0.188705601962E+03    0.59154E+00   -0.48178E+02   768   0.307E+01
DAV:   2    -0.189410344330E+03   -0.70474E+00   -0.70464E+00   768   0.372E+00
DAV:   3    -0.189416287740E+03   -0.59434E-02   -0.59434E-02  1152   0.295E-01
DAV:   4    -0.189416385523E+03   -0.97783E-04   -0.97782E-04   768   0.262E-02    0.190E+00
DAV:   5    -0.189370639145E+03    0.45746E-01   -0.76453E-02  1024   0.113E+00    0.114E+00
DAV:   6    -0.189364671756E+03    0.59674E-02   -0.35776E-02   896   0.475E-01    0.510E-01
DAV:   7    -0.189364567261E+03    0.10450E-03   -0.13547E-02  1024   0.356E-01    0.259E-01
DAV:   8    -0.189364521913E+03    0.45348E-04   -0.31838E-03   768   0.187E-01    0.974E-02
DAV:   9    -0.189364478609E+03    0.43304E-04   -0.47635E-04  1024   0.635E-02    0.504E-02
DAV:  10    -0.189364457070E+03    0.21539E-04   -0.18419E-04  1024   0.406E-02    0.195E-02
DAV:  11    -0.189364457147E+03   -0.77625E-07   -0.32528E-05   768   0.154E-02
     22 T=   330. E= -.18741891E+03 F= -.18936446E+03 E0= -.18931417E+03  EK= 0.23061E+01 SP= -.37E+00 SK= 0.55E-02
     23 T=   340. E= -.18742352E+03 F= -.18941011E+03 E0= -.18941011E+03  EK= 0.23704E+01 SP= -.39E+00 SK= 0.31E-02
     24 T=   349. E= -.18742368E+03 F= -.18945769E+03 E0= -.18945769E+03  EK= 0.24339E+01 SP= -.40E+00 SK= 0.10E-02
     25 T=   357. E= -.18742386E+03 F= -.18950907E+03 E0= -.18950907E+03  EK= 0.24917E+01 SP= -.41E+00 SK= 0.91E-05
     26 T=   364. E= -.18742403E+03 F= -.18956241E+03 E0= -.18956241E+03  EK= 0.25397E+01 SP= -.40E+00 SK= 0.88E-03
     27 T=   369. E= -.18742417E+03 F= -.18961574E+03 E0= -.18961574E+03  EK= 0.25741E+01 SP= -.39E+00 SK= 0.43E-02
     28 T=   371. E= -.18742426E+03 F= -.18966711E+03 E0= -.18966711E+03  EK= 0.25918E+01 SP= -.36E+00 SK= 0.11E-01
 bond charge predicted
       N       E                     dE             d eps       ncg     rms          rms(c)
DAV:   1    -0.189316250235E+03    0.48207E-01   -0.27716E+02   768   0.251E+01
DAV:   2    -0.189712143196E+03   -0.39589E+00   -0.39585E+00   768   0.313E+00
DAV:   3    -0.189715869220E+03   -0.37260E-02   -0.37260E-02  1152   0.268E-01
DAV:   4    -0.189715934436E+03   -0.65216E-04   -0.65217E-04   768   0.280E-02    0.198E+00
DAV:   5    -0.189692407983E+03    0.23526E-01   -0.34470E-02  1024   0.620E-01    0.125E+00
DAV:   6    -0.189689017989E+03    0.33900E-02   -0.35062E-02  1024   0.556E-01    0.532E-01
DAV:   7    -0.189688236544E+03    0.78144E-03   -0.16901E-02   896   0.438E-01    0.160E-01
DAV:   8    -0.189687991482E+03    0.24506E-03   -0.28912E-03  1024   0.168E-01    0.103E-01
DAV:   9    -0.189687874432E+03    0.11705E-03   -0.42889E-04  1024   0.596E-02    0.422E-02
DAV:  10    -0.189687862705E+03    0.11727E-04   -0.17659E-04   896   0.349E-02    0.189E-02
DAV:  11    -0.189687861015E+03    0.16897E-05   -0.28567E-05  1024   0.161E-02
     29 T=   371. E= -.18739818E+03 F= -.18968786E+03 E0= -.18963708E+03  EK= 0.25897E+01 SP= -.32E+00 SK= 0.20E-01
     30 T=   368. E= -.18740341E+03 F= -.18973488E+03 E0= -.18973488E+03  EK= 0.25676E+01 SP= -.27E+00 SK= 0.32E-01
     31 T=   362. E= -.18740328E+03 F= -.18977193E+03 E0= -.18977193E+03  EK= 0.25274E+01 SP= -.20E+00 SK= 0.46E-01
     32 T=   354. E= -.18740311E+03 F= -.18980393E+03 E0= -.18980393E+03  EK= 0.24709E+01 SP= -.13E+00 SK= 0.61E-01
     33 T=   344. E= -.18740293E+03 F= -.18983095E+03 E0= -.18983095E+03  EK= 0.24008E+01 SP= -.47E-01 SK= 0.75E-01
     34 T=   332. E= -.18740276E+03 F= -.18985333E+03 E0= -.18985333E+03  EK= 0.23205E+01 SP= 0.44E-01 SK= 0.86E-01
     35 T=   320. E= -.18740262E+03 F= -.18987160E+03 E0= -.18987160E+03  EK= 0.22337E+01 SP= 0.14E+00 SK= 0.95E-01
     36 T=   307. E= -.18740252E+03 F= -.18988637E+03 E0= -.18988637E+03  EK= 0.21438E+01 SP= 0.24E+00 SK= 0.99E-01
 bond charge predicted
       N       E                     dE             d eps       ncg     rms          rms(c)
DAV:   1    -0.189475611072E+03    0.21225E+00   -0.32265E+02   768   0.279E+01
DAV:   2    -0.189944434925E+03   -0.46882E+00   -0.46880E+00   768   0.352E+00
DAV:   3    -0.189947479347E+03   -0.30444E-02   -0.30444E-02  1024   0.287E-01
DAV:   4    -0.189947560055E+03   -0.80708E-04   -0.80707E-04   768   0.398E-02    0.272E+00
DAV:   5    -0.189916069626E+03    0.31490E-01   -0.41335E-02  1024   0.620E-01    0.175E+00
DAV:   6    -0.189912414025E+03    0.36556E-02   -0.58780E-02  1024   0.718E-01    0.589E-01
DAV:   7    -0.189910600717E+03    0.18133E-02   -0.27463E-02   768   0.569E-01    0.181E-01
DAV:   8    -0.189910133932E+03    0.46679E-03   -0.37351E-03  1024   0.190E-01    0.124E-01
DAV:   9    -0.189909981639E+03    0.15229E-03   -0.76729E-04  1024   0.797E-02    0.504E-02
DAV:  10    -0.189909973396E+03    0.82429E-05   -0.24347E-04   768   0.447E-02    0.200E-02
DAV:  11    -0.189909971183E+03    0.22132E-05   -0.33509E-05  1024   0.173E-02
     37 T=   295. E= -.18741171E+03 F= -.18990997E+03 E0= -.18985889E+03  EK= 0.20565E+01 SP= 0.34E+00 SK= 0.10E+00
     38 T=   283. E= -.18742160E+03 F= -.18993613E+03 E0= -.18993613E+03  EK= 0.19760E+01 SP= 0.44E+00 SK= 0.96E-01
     39 T=   273. E= -.18742164E+03 F= -.18995285E+03 E0= -.18995285E+03  EK= 0.19023E+01 SP= 0.54E+00 SK= 0.89E-01
     40 T=   263. E= -.18742170E+03 F= -.18996955E+03 E0= -.18996955E+03  EK= 0.18360E+01 SP= 0.63E+00 SK= 0.79E-01
     41 T=   255. E= -.18742178E+03 F= -.18998630E+03 E0= -.18998630E+03  EK= 0.17780E+01 SP= 0.72E+00 SK= 0.67E-01
     42 T=   248. E= -.18742185E+03 F= -.19000307E+03 E0= -.19000307E+03  EK= 0.17287E+01 SP= 0.80E+00 SK= 0.54E-01
     43 T=   242. E= -.18742193E+03 F= -.19001982E+03 E0= -.19001982E+03  EK= 0.16884E+01 SP= 0.87E+00 SK= 0.41E-01
 bond charge predicted
       N       E                     dE             d eps       ncg     rms          rms(c)
DAV:   1    -0.189782170629E+03    0.12780E+00   -0.19129E+02   768   0.211E+01
DAV:   2    -0.190051319395E+03   -0.26915E+00   -0.26914E+00   768   0.264E+00
DAV:   3    -0.190054023681E+03   -0.27043E-02   -0.27043E-02  1152   0.238E-01
DAV:   4    -0.190054088916E+03   -0.65235E-04   -0.65237E-04   768   0.281E-02    0.209E+00
DAV:   5    -0.190037962244E+03    0.16127E-01   -0.22442E-02  1024   0.525E-01    0.139E+00
DAV:   6    -0.190036257749E+03    0.17045E-02   -0.26068E-02   896   0.475E-01    0.377E-01
DAV:   7    -0.190035495135E+03    0.76261E-03   -0.11536E-02  1152   0.383E-01    0.151E-01
DAV:   8    -0.190035233082E+03    0.26205E-03   -0.22799E-03  1024   0.152E-01    0.843E-02
DAV:   9    -0.190035156454E+03    0.76629E-04   -0.37462E-04   896   0.553E-02    0.424E-02
DAV:  10    -0.190035150386E+03    0.60677E-05   -0.14767E-04  1024   0.332E-02    0.162E-02
DAV:  11    -0.190035149389E+03    0.99747E-06   -0.23792E-05   896   0.152E-02
     44 T=   238. E= -.18741781E+03 F= -.19003515E+03 E0= -.18998409E+03  EK= 0.16601E+01 SP= 0.93E+00 SK= 0.29E-01
     45 T=   235. E= -.18743081E+03 F= -.19007047E+03 E0= -.19007047E+03  EK= 0.16437E+01 SP= 0.98E+00 SK= 0.18E-01
     46 T=   234. E= -.18743086E+03 F= -.19009251E+03 E0= -.19009251E+03  EK= 0.16359E+01 SP= 0.10E+01 SK= 0.10E-01
     47 T=   235. E= -.18743088E+03 F= -.19011459E+03 E0= -.19011459E+03  EK= 0.16370E+01 SP= 0.10E+01 SK= 0.43E-02
     48 T=   236. E= -.18743088E+03 F= -.19013653E+03 E0= -.19013653E+03  EK= 0.16468E+01 SP= 0.11E+01 SK= 0.96E-03
     49 T=   239. E= -.18743086E+03 F= -.19015821E+03 E0= -.19015821E+03  EK= 0.16649E+01 SP= 0.11E+01 SK= 0.77E-05
     50 T=   242. E= -.18743083E+03 F= -.19017954E+03 E0= -.19017954E+03  EK= 0.16911E+01 SP= 0.11E+01 SK= 0.12E-02
 bond charge predicted
       N       E                     dE             d eps       ncg     rms          rms(c)
DAV:   1    -0.189997415919E+03    0.37734E-01   -0.18440E+02   768   0.201E+01
DAV:   2    -0.190250597912E+03   -0.25318E+00   -0.25316E+00   768   0.249E+00
DAV:   3    -0.190253284250E+03   -0.26863E-02   -0.26863E-02  1152   0.225E-01
DAV:   4    -0.190253332511E+03   -0.48262E-04   -0.48263E-04   768   0.260E-02    0.172E+00
DAV:   5    -0.190240027015E+03    0.13305E-01   -0.19646E-02  1024   0.529E-01    0.116E+00
DAV:   6    -0.190238504699E+03    0.15223E-02   -0.19867E-02  1024   0.413E-01    0.370E-01
DAV:   7    -0.190237956245E+03    0.54845E-03   -0.98978E-03  1152   0.343E-01    0.150E-01
DAV:   8    -0.190237763190E+03    0.19305E-03   -0.20793E-03   896   0.144E-01    0.727E-02
DAV:   9    -0.190237697697E+03    0.65494E-04   -0.27811E-04  1024   0.483E-02    0.426E-02
DAV:  10    -0.190237689573E+03    0.81240E-05   -0.15299E-04   768   0.326E-02    0.176E-02
DAV:  11    -0.190237687907E+03    0.16660E-05   -0.29090E-05  1024   0.166E-02
     51 T=   248. E= -.18746139E+03 F= -.19023769E+03 E0= -.19018670E+03  EK= 0.17317E+01 SP= 0.10E+01 SK= 0.42E-02
     52 T=   255. E= -.18747389E+03 F= -.19028085E+03 E0= -.19028085E+03  EK= 0.17832E+01 SP= 0.10E+01 SK= 0.82E-02
     53 T=   263. E= -.18747388E+03 F= -.19030727E+03 E0= -.19030727E+03  EK= 0.18378E+01 SP= 0.98E+00 SK= 0.13E-01
     54 T=   272. E= -.18747388E+03 F= -.19033187E+03 E0= -.19033187E+03  EK= 0.18970E+01 SP= 0.94E+00 SK= 0.17E-01
     55 T=   281. E= -.18747389E+03 F= -.19035401E+03 E0= -.19035401E+03  EK= 0.19594E+01 SP= 0.90E+00 SK= 0.20E-01
     56 T=   290. E= -.18747392E+03 F= -.19037304E+03 E0= -.19037304E+03  EK= 0.20230E+01 SP= 0.85E+00 SK= 0.23E-01
     57 T=   299. E= -.18747398E+03 F= -.19038825E+03 E0= -.19038825E+03  EK= 0.20860E+01 SP= 0.80E+00 SK= 0.23E-01
 bond charge predicted
       N       E                     dE             d eps       ncg     rms          rms(c)
DAV:   1    -0.190162162197E+03    0.75527E-01   -0.22006E+02   768   0.225E+01
DAV:   2    -0.190481749865E+03   -0.31959E+00   -0.31956E+00   768   0.279E+00
DAV:   3    -0.190485025466E+03   -0.32756E-02   -0.32756E-02  1152   0.254E-01
DAV:   4    -0.190485091233E+03   -0.65767E-04   -0.65766E-04   768   0.299E-02    0.168E+00
DAV:   5    -0.190467606256E+03    0.17485E-01   -0.24336E-02  1024   0.525E-01    0.111E+00
DAV:   6    -0.190465520916E+03    0.20853E-02   -0.29041E-02  1024   0.489E-01    0.424E-01
DAV:   7    -0.190464512949E+03    0.10080E-02   -0.15527E-02  1024   0.413E-01    0.165E-01
DAV:   8    -0.190464341335E+03    0.17161E-03   -0.24473E-03   768   0.149E-01    0.811E-02
DAV:   9    -0.190464254546E+03    0.86789E-04   -0.32455E-04  1024   0.527E-02    0.455E-02
DAV:  10    -0.190464245907E+03    0.86382E-05   -0.18321E-04  1024   0.360E-02    0.207E-02
DAV:  11    -0.190464243470E+03    0.24377E-05   -0.37388E-05  1024   0.189E-02
     58 T=   309. E= -.18753050E+03 F= -.19046424E+03 E0= -.19041348E+03  EK= 0.21550E+01 SP= 0.76E+00 SK= 0.23E-01
     59 T=   319. E= -.18753507E+03 F= -.19048898E+03 E0= -.19048898E+03  EK= 0.22248E+01 SP= 0.71E+00 SK= 0.21E-01
     60 T=   327. E= -.18753516E+03 F= -.19050096E+03 E0= -.19050096E+03  EK= 0.22842E+01 SP= 0.66E+00 SK= 0.17E-01
     61 T=   334. E= -.18753526E+03 F= -.19050725E+03 E0= -.19050725E+03  EK= 0.23340E+01 SP= 0.62E+00 SK= 0.13E-01
     62 T=   340. E= -.18753534E+03 F= -.19050740E+03 E0= -.19050740E+03  EK= 0.23718E+01 SP= 0.59E+00 SK= 0.89E-02
     63 T=   343. E= -.18753540E+03 F= -.19050110E+03 E0= -.19050110E+03  EK= 0.23958E+01 SP= 0.56E+00 SK= 0.51E-02
 bond charge predicted
       N       E                     dE             d eps       ncg     rms          rms(c)
DAV:   1    -0.190282324014E+03    0.18192E+00   -0.19131E+02   768   0.213E+01
DAV:   2    -0.190557727263E+03   -0.27540E+00   -0.27539E+00   768   0.265E+00
DAV:   3    -0.190560230843E+03   -0.25036E-02   -0.25036E-02  1152   0.239E-01
DAV:   4    -0.190560284573E+03   -0.53730E-04   -0.53731E-04   768   0.275E-02    0.160E+00
DAV:   5    -0.190543666981E+03    0.16618E-01   -0.23897E-02  1024   0.523E-01    0.105E+00
DAV:   6    -0.190541779588E+03    0.18874E-02   -0.30264E-02  1024   0.509E-01    0.423E-01
DAV:   7    -0.190540696522E+03    0.10831E-02   -0.16935E-02   896   0.423E-01    0.171E-01
DAV:   8    -0.190540540430E+03    0.15609E-03   -0.24275E-03  1024   0.144E-01    0.809E-02
DAV:   9    -0.190540452508E+03    0.87921E-04   -0.31466E-04   896   0.528E-02    0.421E-02
DAV:  10    -0.190540442067E+03    0.10442E-04   -0.15954E-04  1024   0.325E-02    0.170E-02
DAV:  11    -0.190540440923E+03    0.11436E-05   -0.27894E-05  1024   0.154E-02
     64 T=   346. E= -.18758046E+03 F= -.19054044E+03 E0= -.19049012E+03  EK= 0.24121E+01 SP= 0.55E+00 SK= 0.23E-02
     65 T=   347. E= -.18757389E+03 F= -.19052944E+03 E0= -.19052944E+03  EK= 0.24208E+01 SP= 0.53E+00 SK= 0.52E-03
     66 T=   346. E= -.18757387E+03 F= -.19052035E+03 E0= -.19052035E+03  EK= 0.24155E+01 SP= 0.53E+00 SK= 0.59E-05
     67 T=   343. E= -.18757381E+03 F= -.19050737E+03 E0= -.19050737E+03  EK= 0.23972E+01 SP= 0.54E+00 SK= 0.71E-03
     68 T=   339. E= -.18757374E+03 F= -.19049103E+03 E0= -.19049103E+03  EK= 0.23670E+01 SP= 0.55E+00 SK= 0.24E-02
 bond charge predicted
       N       E                     dE             d eps       ncg     rms          rms(c)
DAV:   1    -0.190321290404E+03    0.21915E+00   -0.12654E+02   768   0.173E+01
DAV:   2    -0.190493119193E+03   -0.17183E+00   -0.17182E+00   768   0.215E+00
DAV:   3    -0.190494623122E+03   -0.15039E-02   -0.15039E-02  1152   0.194E-01
DAV:   4    -0.190494653304E+03   -0.30182E-04   -0.30182E-04   768   0.214E-02    0.139E+00
DAV:   5    -0.190483605387E+03    0.11048E-01   -0.17568E-02  1024   0.486E-01    0.930E-01
DAV:   6    -0.190482442028E+03    0.11634E-02   -0.20959E-02  1024   0.435E-01    0.358E-01
DAV:   7    -0.190481745860E+03    0.69617E-03   -0.12768E-02  1024   0.364E-01    0.160E-01
DAV:   8    -0.190481589898E+03    0.15596E-03   -0.20995E-03  1024   0.134E-01    0.687E-02
DAV:   9    -0.190481530770E+03    0.59127E-04   -0.24850E-04   896   0.472E-02    0.377E-02
DAV:  10    -0.190481518346E+03    0.12425E-04   -0.12500E-04  1024   0.281E-02    0.148E-02
DAV:  11    -0.190481518300E+03    0.46162E-07   -0.27100E-05  1024   0.149E-02
     69 T=   333. E= -.18758257E+03 F= -.19048152E+03 E0= -.19043167E+03  EK= 0.23275E+01 SP= 0.57E+00 SK= 0.47E-02
     70 T=   327. E= -.18758337E+03 F= -.19046390E+03 E0= -.19046390E+03  EK= 0.22818E+01 SP= 0.59E+00 SK= 0.72E-02
     71 T=   320. E= -.18758329E+03 F= -.19044547E+03 E0= -.19044547E+03  EK= 0.22318E+01 SP= 0.62E+00 SK= 0.95E-02
     72 T=   312. E= -.18758322E+03 F= -.19042716E+03 E0= -.19042716E+03  EK= 0.21791E+01 SP= 0.65E+00 SK= 0.11E-01
     73 T=   305. E= -.18758316E+03 F= -.19040973E+03 E0= -.19040973E+03  EK= 0.21258E+01 SP= 0.69E+00 SK= 0.12E-01
     74 T=   297. E= -.18758313E+03 F= -.19039384E+03 E0= -.19039384E+03  EK= 0.20742E+01 SP= 0.72E+00 SK= 0.12E-01
 bond charge predicted
       N       E                     dE             d eps       ncg     rms          rms(c)
DAV:   1    -0.190219693131E+03    0.26183E+00   -0.14112E+02   768   0.179E+01
DAV:   2    -0.190390281838E+03   -0.17059E+00   -0.17059E+00   768   0.221E+00
DAV:   3    -0.190391680663E+03   -0.13988E-02   -0.13988E-02  1024   0.197E-01
DAV:   4    -0.190391722378E+03   -0.41714E-04   -0.41713E-04   896   0.284E-02    0.156E+00
DAV:   5    -0.190379883937E+03    0.11838E-01   -0.21749E-02  1024   0.579E-01    0.105E+00
DAV:   6    -0.190378727170E+03    0.11568E-02   -0.22805E-02  1024   0.462E-01    0.402E-01
DAV:   7    -0.190378024968E+03    0.70220E-03   -0.14512E-02  1024   0.382E-01    0.181E-01
DAV:   8    -0.190377803099E+03    0.22187E-03   -0.30338E-03  1024   0.158E-01    0.786E-02
DAV:   9    -0.190377733995E+03    0.69105E-04   -0.37562E-04   896   0.574E-02    0.454E-02
DAV:  10    -0.190377712377E+03    0.21617E-04   -0.18078E-04  1024   0.342E-02    0.211E-02
DAV:  11    -0.190377711637E+03    0.74071E-06   -0.52624E-05  1024   0.212E-02
     75 T=   290. E= -.18758011E+03 F= -.19037771E+03 E0= -.19032829E+03  EK= 0.20266E+01 SP= 0.76E+00 SK= 0.12E-01
     76 T=   285. E= -.18760272E+03 F= -.19039212E+03 E0= -.19039212E+03  EK= 0.19863E+01 SP= 0.79E+00 SK= 0.10E-01
     77 T=   280. E= -.18760274E+03 F= -.19038825E+03 E0= -.19038825E+03  EK= 0.19533E+01 SP= 0.82E+00 SK= 0.84E-02
     78 T=   276. E= -.18760278E+03 F= -.19038748E+03 E0= -.19038748E+03  EK= 0.19270E+01 SP= 0.85E+00 SK= 0.63E-02
     79 T=   273. E= -.18760282E+03 F= -.19038957E+03 E0= -.19038957E+03  EK= 0.19077E+01 SP= 0.87E+00 SK= 0.43E-02
     80 T=   272. E= -.18760286E+03 F= -.19039414E+03 E0= -.19039414E+03  EK= 0.18951E+01 SP= 0.89E+00 SK= 0.26E-02
     81 T=   271. E= -.18760291E+03 F= -.19040067E+03 E0= -.19040067E+03  EK= 0.18890E+01 SP= 0.91E+00 SK= 0.13E-02
     82 T=   271. E= -.18760296E+03 F= -.19040852E+03 E0= -.19040852E+03  EK= 0.18888E+01 SP= 0.92E+00 SK= 0.39E-03
     83 T=   271. E= -.18760300E+03 F= -.19041698E+03 E0= -.19041698E+03  EK= 0.18938E+01 SP= 0.92E+00 SK= 0.17E-04
 bond charge predicted
       N       E                     dE             d eps       ncg     rms          rms(c)
DAV:   1    -0.190175449090E+03    0.20226E+00   -0.24647E+02   768   0.231E+01
DAV:   2    -0.190432831780E+03   -0.25738E+00   -0.25738E+00  1024   0.285E+00
DAV:   3    -0.190434463725E+03   -0.16319E-02   -0.16319E-02   768   0.226E-01
DAV:   4    -0.190434494677E+03   -0.30951E-04   -0.30952E-04  1024   0.307E-02    0.221E+00
DAV:   5    -0.190413949795E+03    0.20545E-01   -0.45084E-02  1024   0.861E-01    0.148E+00
DAV:   6    -0.190412030301E+03    0.19195E-02   -0.39343E-02  1024   0.628E-01    0.595E-01
DAV:   7    -0.190410674568E+03    0.13557E-02   -0.23420E-02  1024   0.480E-01    0.219E-01
DAV:   8    -0.190410356701E+03    0.31787E-03   -0.57149E-03  1024   0.207E-01    0.118E-01
DAV:   9    -0.190410199068E+03    0.15763E-03   -0.93297E-04  1024   0.884E-02    0.665E-02
DAV:  10    -0.190410154472E+03    0.44596E-04   -0.39460E-04  1024   0.513E-02    0.334E-02
DAV:  11    -0.190410149487E+03    0.49850E-05   -0.11432E-04  1024   0.308E-02    0.143E-02
DAV:  12    -0.190410148323E+03    0.11632E-05   -0.16664E-05   768   0.119E-02
     84 T=   273. E= -.18758543E+03 F= -.19041015E+03 E0= -.19036075E+03  EK= 0.19055E+01 SP= 0.92E+00 SK= 0.12E-03
     85 T=   276. E= -.18763412E+03 F= -.19047266E+03 E0= -.19047266E+03  EK= 0.19246E+01 SP= 0.91E+00 SK= 0.61E-03
     86 T=   279. E= -.18763418E+03 F= -.19048638E+03 E0= -.19048638E+03  EK= 0.19474E+01 SP= 0.90E+00 SK= 0.14E-02
     87 T=   282. E= -.18763423E+03 F= -.19049824E+03 E0= -.19049824E+03  EK= 0.19718E+01 SP= 0.89E+00 SK= 0.22E-02
     88 T=   286. E= -.18763428E+03 F= -.19050731E+03 E0= -.19050731E+03  EK= 0.19965E+01 SP= 0.87E+00 SK= 0.31E-02
     89 T=   289. E= -.18763433E+03 F= -.19051272E+03 E0= -.19051272E+03  EK= 0.20200E+01 SP= 0.85E+00 SK= 0.39E-02
     90 T=   292. E= -.18763437E+03 F= -.19051370E+03 E0= -.19051370E+03  EK= 0.20410E+01 SP= 0.83E+00 SK= 0.45E-02
     91 T=   295. E= -.18763441E+03 F= -.19050964E+03 E0= -.19050964E+03  EK= 0.20585E+01 SP= 0.81E+00 SK= 0.49E-02
     92 T=   297. E= -.18763443E+03 F= -.19050008E+03 E0= -.19050008E+03  EK= 0.20715E+01 SP= 0.79E+00 SK= 0.52E-02
     93 T=   298. E= -.18763445E+03 F= -.19048473E+03 E0= -.19048473E+03  EK= 0.20794E+01 SP= 0.77E+00 SK= 0.54E-02
 bond charge predicted
       N       E                     dE             d eps       ncg     rms          rms(c)
DAV:   1    -0.189979577227E+03    0.43057E+00   -0.38710E+02   768   0.302E+01
DAV:   2    -0.190496458857E+03   -0.51688E+00   -0.51685E+00  1024   0.378E+00
DAV:   3    -0.190500772998E+03   -0.43141E-02   -0.43141E-02   896   0.338E-01
DAV:   4    -0.190500835437E+03   -0.62440E-04   -0.62439E-04  1152   0.297E-02    0.269E+00
DAV:   5    -0.190464624015E+03    0.36211E-01   -0.80140E-02  1024   0.109E+00    0.177E+00
DAV:   6    -0.190461329226E+03    0.32948E-02   -0.65439E-02  1024   0.822E-01    0.809E-01
DAV:   7    -0.190458890904E+03    0.24383E-02   -0.37133E-02   896   0.590E-01    0.250E-01
DAV:   8    -0.190458590205E+03    0.30070E-03   -0.92417E-03  1024   0.251E-01    0.167E-01
DAV:   9    -0.190458279995E+03    0.31021E-03   -0.18471E-03  1024   0.123E-01    0.870E-02
DAV:  10    -0.190458210096E+03    0.69899E-04   -0.75217E-04   768   0.720E-02    0.466E-02
DAV:  11    -0.190458197769E+03    0.12327E-04   -0.21708E-04  1024   0.417E-02    0.187E-02
DAV:  12    -0.190458196552E+03    0.12177E-05   -0.37337E-05  1024   0.174E-02
     94 T=   299. E= -.18762358E+03 F= -.19045820E+03 E0= -.19040815E+03  EK= 0.20874E+01 SP= 0.74E+00 SK= 0.55E-02
     95 T=   299. E= -.18762297E+03 F= -.19043586E+03 E0= -.19043586E+03  EK= 0.20896E+01 SP= 0.72E+00 SK= 0.56E-02
     96 T=   298. E= -.18762296E+03 F= -.19040250E+03 E0= -.19040250E+03  EK= 0.20802E+01 SP= 0.69E+00 SK= 0.56E-02
 bond charge predicted
       N       E                     dE             d eps       ncg     rms          rms(c)
DAV:   1    -0.190349887829E+03    0.10831E+00   -0.39595E+01   768   0.970E+00
DAV:   2    -0.190404438307E+03   -0.54550E-01   -0.54550E-01  1024   0.121E+00
DAV:   3    -0.190404912190E+03   -0.47388E-03   -0.47388E-03   768   0.111E-01
DAV:   4    -0.190404929992E+03   -0.17802E-04   -0.17802E-04  1152   0.168E-02    0.842E-01
DAV:   5    -0.190401196549E+03    0.37334E-02   -0.84270E-03  1024   0.349E-01    0.548E-01
DAV:   6    -0.190400896872E+03    0.29968E-03   -0.67456E-03  1024   0.267E-01    0.272E-01
DAV:   7    -0.190400646644E+03    0.25023E-03   -0.38909E-03  1024   0.190E-01    0.745E-02
DAV:   8    -0.190400615941E+03    0.30703E-04   -0.88378E-04  1024   0.822E-02    0.522E-02
DAV:   9    -0.190400589049E+03    0.26893E-04   -0.12270E-04  1024   0.332E-02    0.236E-02
DAV:  10    -0.190400582974E+03    0.60743E-05   -0.53704E-05  1024   0.187E-02
     97 T=   297. E= -.18765166E+03 F= -.19040058E+03 E0= -.19035031E+03  EK= 0.20737E+01 SP= 0.67E+00 SK= 0.59E-02
     98 T=   297. E= -.18769652E+03 F= -.19041975E+03 E0= -.19041975E+03  EK= 0.20726E+01 SP= 0.64E+00 SK= 0.61E-02
     99 T=   297. E= -.18769650E+03 F= -.19039177E+03 E0= -.19039177E+03  EK= 0.20698E+01 SP= 0.62E+00 SK= 0.64E-02
    100 T=   296. E= -.18769647E+03 F= -.19036084E+03 E0= -.19036084E+03  EK= 0.20645E+01 SP= 0.59E+00 SK= 0.67E-02
    101 T=   295. E= -.18769644E+03 F= -.19032754E+03 E0= -.19032754E+03  EK= 0.20575E+01 SP= 0.57E+00 SK= 0.71E-02
    102 T=   294. E= -.18769640E+03 F= -.19029258E+03 E0= -.19029258E+03  EK= 0.20497E+01 SP= 0.54E+00 SK= 0.76E-02
    103 T=   293. E= -.18769635E+03 F= -.19025669E+03 E0= -.19025669E+03  EK= 0.20418E+01 SP= 0.51E+00 SK= 0.83E-02
    104 T=   292. E= -.18769630E+03 F= -.19022073E+03 E0= -.19022073E+03  EK= 0.20350E+01 SP= 0.48E+00 SK= 0.91E-02
    105 T=   291. E= -.18769625E+03 F= -.19018562E+03 E0= -.19018562E+03  EK= 0.20304E+01 SP= 0.45E+00 SK= 0.10E-01
 bond charge predicted
       N       E                     dE             d eps       ncg     rms          rms(c)
DAV:   1    -0.189681550566E+03    0.71904E+00   -0.33407E+02   768   0.277E+01
DAV:   2    -0.190148089882E+03   -0.46654E+00   -0.46651E+00   768   0.350E+00
DAV:   3    -0.190153211880E+03   -0.51220E-02   -0.51219E-02  1280   0.326E-01
DAV:   4    -0.190153223763E+03   -0.11883E-04   -0.11882E-04   768   0.147E-02    0.241E+00
DAV:   5    -0.190123517188E+03    0.29707E-01   -0.68129E-02  1024   0.981E-01    0.160E+00
DAV:   6    -0.190122372875E+03    0.11443E-02   -0.57546E-02  1024   0.778E-01    0.792E-01
DAV:   7    -0.190119987148E+03    0.23857E-02   -0.34022E-02  1024   0.555E-01    0.209E-01
DAV:   8    -0.190119772691E+03    0.21446E-03   -0.79884E-03  1024   0.242E-01    0.155E-01
DAV:   9    -0.190119546118E+03    0.22657E-03   -0.11521E-03  1024   0.997E-02    0.702E-02
DAV:  10    -0.190119493677E+03    0.52442E-04   -0.42753E-04  1024   0.540E-02    0.373E-02
DAV:  11    -0.190119487403E+03    0.62742E-05   -0.12977E-04  1024   0.337E-02    0.161E-02
DAV:  12    -0.190119487077E+03    0.32595E-06   -0.32749E-05   896   0.155E-02
    106 T=   291. E= -.18766114E+03 F= -.19011949E+03 E0= -.19006888E+03  EK= 0.20313E+01 SP= 0.42E+00 SK= 0.11E-01
    107 T=   292. E= -.18770731E+03 F= -.19014039E+03 E0= -.19014039E+03  EK= 0.20395E+01 SP= 0.38E+00 SK= 0.12E-01
    108 T=   294. E= -.18770729E+03 F= -.19011910E+03 E0= -.19011910E+03  EK= 0.20532E+01 SP= 0.35E+00 SK= 0.13E-01
    109 T=   297. E= -.18770729E+03 F= -.19010109E+03 E0= -.19010109E+03  EK= 0.20713E+01 SP= 0.31E+00 SK= 0.13E-01
    110 T=   300. E= -.18770732E+03 F= -.19008639E+03 E0= -.19008639E+03  EK= 0.20937E+01 SP= 0.27E+00 SK= 0.14E-01
 bond charge predicted
       N       E                     dE             d eps       ncg     rms          rms(c)
DAV:   1    -0.189907680614E+03    0.21181E+00   -0.10394E+02   768   0.149E+01
DAV:   2    -0.190035354074E+03   -0.12767E+00   -0.12767E+00   768   0.186E+00
DAV:   3    -0.190036723839E+03   -0.13698E-02   -0.13698E-02  1152   0.170E-01
DAV:   4    -0.190036747052E+03   -0.23212E-04   -0.23212E-04   768   0.177E-02    0.135E+00
DAV:   5    -0.190027745780E+03    0.90013E-02   -0.21418E-02  1024   0.553E-01    0.937E-01
DAV:   6    -0.190027671673E+03    0.74107E-04   -0.17077E-02  1024   0.428E-01    0.436E-01
DAV:   7    -0.190027091671E+03    0.58000E-03   -0.10461E-02  1024   0.297E-01    0.117E-01
DAV:   8    -0.190027041751E+03    0.49920E-04   -0.24994E-03  1024   0.129E-01    0.818E-02
DAV:   9    -0.190026970167E+03    0.71584E-04   -0.35409E-04  1024   0.540E-02    0.409E-02
DAV:  10    -0.190026952547E+03    0.17620E-04   -0.13570E-04  1024   0.309E-02    0.225E-02
DAV:  11    -0.190026949908E+03    0.26388E-05   -0.53372E-05  1024   0.208E-02
    111 T=   304. E= -.18765848E+03 F= -.19002695E+03 E0= -.18997645E+03  EK= 0.21206E+01 SP= 0.23E+00 SK= 0.13E-01
    112 T=   308. E= -.18769358E+03 F= -.19005405E+03 E0= -.19005405E+03  EK= 0.21499E+01 SP= 0.20E+00 SK= 0.13E-01
    113 T=   312. E= -.18769370E+03 F= -.19004572E+03 E0= -.19004572E+03  EK= 0.21778E+01 SP= 0.16E+00 SK= 0.11E-01
    114 T=   316. E= -.18769382E+03 F= -.19003609E+03 E0= -.19003609E+03  EK= 0.22027E+01 SP= 0.13E+00 SK= 0.98E-02
    115 T=   318. E= -.18769391E+03 F= -.19002400E+03 E0= -.19002400E+03  EK= 0.22227E+01 SP= 0.99E-01 SK= 0.81E-02
 bond charge predicted
       N       E                     dE             d eps       ncg     rms          rms(c)
DAV:   1    -0.189892090449E+03    0.13486E+00   -0.11555E+02   768   0.157E+01
DAV:   2    -0.190042283093E+03   -0.15019E+00   -0.15019E+00   768   0.198E+00
DAV:   3    -0.190043765499E+03   -0.14824E-02   -0.14824E-02  1152   0.176E-01
DAV:   4    -0.190043789881E+03   -0.24381E-04   -0.24382E-04   768   0.182E-02    0.149E+00
DAV:   5    -0.190033113607E+03    0.10676E-01   -0.25622E-02  1152   0.589E-01    0.105E+00
DAV:   6    -0.190032836725E+03    0.27688E-03   -0.19741E-02  1024   0.452E-01    0.482E-01
DAV:   7    -0.190032049766E+03    0.78696E-03   -0.12371E-02  1024   0.312E-01    0.131E-01
DAV:   8    -0.190032026238E+03    0.23529E-04   -0.33115E-03  1024   0.141E-01    0.904E-02
DAV:   9    -0.190031925495E+03    0.10074E-03   -0.47706E-04  1024   0.621E-02    0.459E-02
DAV:  10    -0.190031902987E+03    0.22508E-04   -0.15883E-04  1024   0.329E-02    0.227E-02
DAV:  11    -0.190031900658E+03    0.23287E-05   -0.45450E-05  1024   0.195E-02
    116 T=   322. E= -.18770459E+03 F= -.19003190E+03 E0= -.18998168E+03  EK= 0.22489E+01 SP= 0.72E-01 SK= 0.63E-02
    117 T=   327. E= -.18771743E+03 F= -.19005355E+03 E0= -.19005355E+03  EK= 0.22830E+01 SP= 0.49E-01 SK= 0.44E-02
    118 T=   331. E= -.18771750E+03 F= -.19006339E+03 E0= -.19006339E+03  EK= 0.23133E+01 SP= 0.30E-01 SK= 0.25E-02
    119 T=   335. E= -.18771756E+03 F= -.19007346E+03 E0= -.19007346E+03  EK= 0.23380E+01 SP= 0.17E-01 SK= 0.10E-02
 bond charge predicted
       N       E                     dE             d eps       ncg     rms          rms(c)
DAV:   1    -0.189966876976E+03    0.65026E-01   -0.82878E+01   768   0.136E+01
DAV:   2    -0.190080399648E+03   -0.11352E+00   -0.11352E+00   768   0.173E+00
DAV:   3    -0.190081521273E+03   -0.11216E-02   -0.11216E-02  1152   0.157E-01
DAV:   4    -0.190081541150E+03   -0.19877E-04   -0.19877E-04   768   0.167E-02    0.133E+00
DAV:   5    -0.190073342986E+03    0.81982E-02   -0.19402E-02  1152   0.498E-01    0.926E-01
DAV:   6    -0.190072966263E+03    0.37672E-03   -0.15231E-02  1024   0.389E-01    0.437E-01
DAV:   7    -0.190072122074E+03    0.84419E-03   -0.88775E-03  1024   0.263E-01    0.102E-01
DAV:   8    -0.190072134640E+03   -0.12566E-04   -0.21983E-03  1024   0.113E-01    0.752E-02
DAV:   9    -0.190072065845E+03    0.68795E-04   -0.28835E-04  1024   0.484E-02    0.391E-02
DAV:  10    -0.190072050091E+03    0.15754E-04   -0.12657E-04  1024   0.298E-02    0.207E-02
DAV:  11    -0.190072048038E+03    0.20532E-05   -0.38379E-05  1024   0.181E-02
    120 T=   338. E= -.18770639E+03 F= -.19007205E+03 E0= -.19002222E+03  EK= 0.23559E+01 SP= 0.96E-02 SK= 0.16E-03
    121 T=   339. E= -.18771146E+03 F= -.19008832E+03 E0= -.19008832E+03  EK= 0.23679E+01 SP= 0.89E-02 SK= 0.65E-04
    122 T=   340. E= -.18771146E+03 F= -.19010092E+03 E0= -.19010092E+03  EK= 0.23737E+01 SP= 0.15E-01 SK= 0.87E-03
    123 T=   340. E= -.18771145E+03 F= -.19011356E+03 E0= -.19011356E+03  EK= 0.23716E+01 SP= 0.28E-01 SK= 0.26E-02
 bond charge predicted
       N       E                     dE             d eps       ncg     rms          rms(c)
DAV:   1    -0.189974552600E+03    0.97497E-01   -0.90534E+01   768   0.144E+01
DAV:   2    -0.190105787903E+03   -0.13124E+00   -0.13123E+00   768   0.183E+00
DAV:   3    -0.190107089448E+03   -0.13015E-02   -0.13015E-02  1152   0.168E-01
DAV:   4    -0.190107113425E+03   -0.23977E-04   -0.23977E-04   768   0.183E-02    0.140E+00
DAV:   5    -0.190097633382E+03    0.94800E-02   -0.23558E-02  1280   0.519E-01    0.963E-01
DAV:   6    -0.190096815934E+03    0.81745E-03   -0.17254E-02  1024   0.400E-01    0.488E-01
DAV:   7    -0.190095894858E+03    0.92108E-03   -0.93300E-03  1024   0.262E-01    0.977E-02
DAV:   8    -0.190095936911E+03   -0.42053E-04   -0.21503E-03   896   0.109E-01    0.729E-02
DAV:   9    -0.190095867983E+03    0.68928E-04   -0.22742E-04   896   0.434E-02    0.373E-02
DAV:  10    -0.190095856644E+03    0.11339E-04   -0.13445E-04  1024   0.310E-02    0.221E-02
DAV:  11    -0.190095854237E+03    0.24071E-05   -0.44388E-05  1024   0.196E-02
    124 T=   337. E= -.18768720E+03 F= -.19009585E+03 E0= -.19004655E+03  EK= 0.23558E+01 SP= 0.48E-01 SK= 0.52E-02
    125 T=   334. E= -.18768830E+03 F= -.19009923E+03 E0= -.19009923E+03  EK= 0.23286E+01 SP= 0.74E-01 SK= 0.83E-02
    126 T=   329. E= -.18768824E+03 F= -.19010298E+03 E0= -.19010298E+03  EK= 0.22970E+01 SP= 0.11E+00 SK= 0.12E-01
 bond charge predicted
       N       E                     dE             d eps       ncg     rms          rms(c)
DAV:   1    -0.190011680620E+03    0.84176E-01   -0.51901E+01   768   0.109E+01
DAV:   2    -0.190086745827E+03   -0.75065E-01   -0.75064E-01   896   0.139E+00
DAV:   3    -0.190087513161E+03   -0.76733E-03   -0.76733E-03   896   0.129E-01
DAV:   4    -0.190087527806E+03   -0.14645E-04   -0.14644E-04  1024   0.145E-02    0.105E+00
DAV:   5    -0.190082009859E+03    0.55179E-02   -0.15769E-02  1280   0.401E-01    0.715E-01
DAV:   6    -0.190081074428E+03    0.93543E-03   -0.10292E-02  1024   0.297E-01    0.387E-01
DAV:   7    -0.190080622917E+03    0.45151E-03   -0.52167E-03  1024   0.184E-01    0.749E-02
DAV:   8    -0.190080646782E+03   -0.23865E-04   -0.11228E-03   768   0.782E-02    0.516E-02
DAV:   9    -0.190080607523E+03    0.39259E-04   -0.10914E-04   896   0.296E-02    0.251E-02
DAV:  10    -0.190080603667E+03    0.38561E-05   -0.64439E-05  1024   0.215E-02
    127 T=   323. E= -.18766940E+03 F= -.19008060E+03 E0= -.19003172E+03  EK= 0.22531E+01 SP= 0.14E+00 SK= 0.15E-01
    128 T=   315. E= -.18766998E+03 F= -.19007157E+03 E0= -.19007157E+03  EK= 0.21998E+01 SP= 0.18E+00 SK= 0.18E-01
    129 T=   307. E= -.18766993E+03 F= -.19006213E+03 E0= -.19006213E+03  EK= 0.21451E+01 SP= 0.23E+00 SK= 0.19E-01
 bond charge predicted
       N       E                     dE             d eps       ncg     rms          rms(c)
DAV:   1    -0.189968604880E+03    0.11200E+00   -0.49128E+01   768   0.106E+01
DAV:   2    -0.190039692559E+03   -0.71088E-01   -0.71086E-01  1024   0.135E+00
DAV:   3    -0.190040437312E+03   -0.74475E-03   -0.74475E-03   896   0.127E-01
DAV:   4    -0.190040451561E+03   -0.14248E-04   -0.14249E-04  1024   0.144E-02    0.100E+00
DAV:   5    -0.190035117298E+03    0.53343E-02   -0.17820E-02  1152   0.408E-01    0.686E-01
DAV:   6    -0.190033733927E+03    0.13834E-02   -0.10398E-02  1024   0.290E-01    0.382E-01
DAV:   7    -0.190033433771E+03    0.30016E-03   -0.50749E-03  1024   0.173E-01    0.835E-02
DAV:   8    -0.190033444207E+03   -0.10435E-04   -0.10290E-03   896   0.780E-02    0.477E-02
DAV:   9    -0.190033405961E+03    0.38245E-04   -0.13408E-04  1024   0.326E-02    0.264E-02
DAV:  10    -0.190033401551E+03    0.44097E-05   -0.74694E-05  1024   0.233E-02
    130 T=   299. E= -.18765659E+03 F= -.19003340E+03 E0= -.18998501E+03  EK= 0.20843E+01 SP= 0.27E+00 SK= 0.20E-01
    131 T=   289. E= -.18766143E+03 F= -.19001692E+03 E0= -.19001692E+03  EK= 0.20191E+01 SP= 0.32E+00 SK= 0.19E-01
    132 T=   280. E= -.18766141E+03 F= -.18999378E+03 E0= -.18999378E+03  EK= 0.19553E+01 SP= 0.36E+00 SK= 0.17E-01
 bond charge predicted
       N       E                     dE             d eps       ncg     rms          rms(c)
DAV:   1    -0.189904688916E+03    0.12872E+00   -0.43773E+01   768   0.100E+01
DAV:   2    -0.189966811011E+03   -0.62122E-01   -0.62121E-01  1024   0.126E+00
DAV:   3    -0.189967459754E+03   -0.64874E-03   -0.64874E-03   896   0.120E-01
DAV:   4    -0.189967472106E+03   -0.12353E-04   -0.12353E-04  1024   0.137E-02    0.934E-01
DAV:   5    -0.189962707240E+03    0.47649E-02   -0.18629E-02  1024   0.398E-01    0.640E-01
DAV:   6    -0.189961083444E+03    0.16238E-02   -0.97798E-03  1024   0.274E-01    0.361E-01
DAV:   7    -0.189960848304E+03    0.23514E-03   -0.46471E-03  1024   0.158E-01    0.850E-02
DAV:   8    -0.189960845982E+03    0.23219E-05   -0.87202E-04   896   0.738E-02    0.442E-02
DAV:   9    -0.189960815343E+03    0.30639E-04   -0.12954E-04  1024   0.320E-02    0.254E-02
DAV:  10    -0.189960810449E+03    0.48942E-05   -0.67330E-05  1024   0.224E-02
    133 T=   271. E= -.18765405E+03 F= -.18996081E+03 E0= -.18991286E+03  EK= 0.18935E+01 SP= 0.40E+00 SK= 0.14E-01
    134 T=   263. E= -.18765612E+03 F= -.18993469E+03 E0= -.18993469E+03  EK= 0.18345E+01 SP= 0.43E+00 SK= 0.97E-02
    135 T=   255. E= -.18765610E+03 F= -.18990510E+03 E0= -.18990510E+03  EK= 0.17807E+01 SP= 0.46E+00 SK= 0.59E-02
    136 T=   248. E= -.18765608E+03 F= -.18987562E+03 E0= -.18987562E+03  EK= 0.17341E+01 SP= 0.48E+00 SK= 0.26E-02
 bond charge predicted
       N       E                     dE             d eps       ncg     rms          rms(c)
DAV:   1    -0.189774929815E+03    0.18589E+00   -0.63973E+01   768   0.121E+01
DAV:   2    -0.189862381092E+03   -0.87451E-01   -0.87450E-01  1024   0.151E+00
DAV:   3    -0.189863195325E+03   -0.81423E-03   -0.81423E-03   896   0.140E-01
DAV:   4    -0.189863210558E+03   -0.15233E-04   -0.15234E-04  1024   0.154E-02    0.111E+00
DAV:   5    -0.189856335924E+03    0.68746E-02   -0.27282E-02  1152   0.474E-01    0.753E-01
DAV:   6    -0.189854024243E+03    0.23117E-02   -0.14375E-02  1024   0.329E-01    0.431E-01
DAV:   7    -0.189853704290E+03    0.31995E-03   -0.67753E-03  1024   0.191E-01    0.109E-01
DAV:   8    -0.189853694920E+03    0.93702E-05   -0.13902E-03  1024   0.952E-02    0.560E-02
DAV:   9    -0.189853649852E+03    0.45069E-04   -0.22282E-04  1024   0.433E-02    0.334E-02
DAV:  10    -0.189853639157E+03    0.10695E-04   -0.10630E-04  1024   0.274E-02    0.136E-02
DAV:  11    -0.189853639064E+03    0.93589E-07   -0.21918E-05  1024   0.126E-02
    137 T=   243. E= -.18766067E+03 F= -.18985364E+03 E0= -.18980623E+03  EK= 0.16980E+01 SP= 0.49E+00 SK= 0.46E-03
    138 T=   240. E= -.18765412E+03 F= -.18982332E+03 E0= -.18982332E+03  EK= 0.16728E+01 SP= 0.50E+00 SK= 0.10E-03
    139 T=   238. E= -.18765405E+03 F= -.18980179E+03 E0= -.18980179E+03  EK= 0.16581E+01 SP= 0.49E+00 SK= 0.19E-02
    140 T=   237. E= -.18765398E+03 F= -.18978493E+03 E0= -.18978493E+03  EK= 0.16565E+01 SP= 0.47E+00 SK= 0.59E-02
    141 T=   239. E= -.18765388E+03 F= -.18977379E+03 E0= -.18977379E+03  EK= 0.16693E+01 SP= 0.44E+00 SK= 0.12E-01
    142 T=   243. E= -.18765377E+03 F= -.18976924E+03 E0= -.18976924E+03  EK= 0.16974E+01 SP= 0.40E+00 SK= 0.20E-01
    143 T=   249. E= -.18765366E+03 F= -.18977197E+03 E0= -.18977197E+03  EK= 0.17414E+01 SP= 0.35E+00 SK= 0.29E-01
    144 T=   258. E= -.18765355E+03 F= -.18978242E+03 E0= -.18978242E+03  EK= 0.18017E+01 SP= 0.29E+00 SK= 0.38E-01
    145 T=   269. E= -.18765346E+03 F= -.18980069E+03 E0= -.18980069E+03  EK= 0.18781E+01 SP= 0.22E+00 SK= 0.46E-01
    146 T=   282. E= -.18765343E+03 F= -.18982643E+03 E0= -.18982643E+03  EK= 0.19693E+01 SP= 0.15E+00 SK= 0.52E-01
 bond charge predicted
       N       E                     dE             d eps       ncg     rms          rms(c)
DAV:   1    -0.189498328450E+03    0.35531E+00   -0.32424E+02   768   0.271E+01
DAV:   2    -0.189905574222E+03   -0.40725E+00   -0.40723E+00  1024   0.331E+00
DAV:   3    -0.189909378120E+03   -0.38039E-02   -0.38039E-02   896   0.298E-01
DAV:   4    -0.189909435599E+03   -0.57479E-04   -0.57478E-04  1152   0.276E-02    0.243E+00
DAV:   5    -0.189881623637E+03    0.27812E-01   -0.40047E-02  1024   0.664E-01    0.156E+00
DAV:   6    -0.189880086696E+03    0.15369E-02   -0.49122E-02  1024   0.707E-01    0.576E-01
DAV:   7    -0.189878065492E+03    0.20212E-02   -0.26934E-02  1024   0.545E-01    0.217E-01
DAV:   8    -0.189877756854E+03    0.30864E-03   -0.47961E-03  1024   0.193E-01    0.126E-01
DAV:   9    -0.189877578618E+03    0.17824E-03   -0.83811E-04  1024   0.844E-02    0.660E-02
DAV:  10    -0.189877538289E+03    0.40329E-04   -0.37803E-04  1024   0.456E-02    0.254E-02
DAV:  11    -0.189877535564E+03    0.27244E-05   -0.76857E-05  1024   0.253E-02
    147 T=   297. E= -.18767481E+03 F= -.18987754E+03 E0= -.18983106E+03  EK= 0.20708E+01 SP= 0.77E-01 SK= 0.55E-01
    148 T=   312. E= -.18765841E+03 F= -.18989466E+03 E0= -.18989466E+03  EK= 0.21804E+01 SP= 0.20E-02 SK= 0.54E-01
 bond charge predicted
       N       E                     dE             d eps       ncg     rms          rms(c)
DAV:   1    -0.189916288256E+03   -0.38750E-01   -0.20292E+01   768   0.666E+00
DAV:   2    -0.189941852431E+03   -0.25564E-01   -0.25564E-01  1024   0.836E-01
DAV:   3    -0.189942123982E+03   -0.27155E-03   -0.27155E-03  1024   0.724E-02
DAV:   4    -0.189942124374E+03   -0.39135E-06   -0.39076E-06   896   0.274E-03    0.649E-01
DAV:   5    -0.189940118256E+03    0.20061E-02   -0.74814E-03  1152   0.232E-01    0.445E-01
DAV:   6    -0.189939549900E+03    0.56836E-03   -0.40638E-03  1280   0.165E-01    0.250E-01
DAV:   7    -0.189939435477E+03    0.11442E-03   -0.16364E-03  1024   0.105E-01    0.552E-02
DAV:   8    -0.189939453004E+03   -0.17527E-04   -0.39841E-04  1024   0.483E-02    0.286E-02
DAV:   9    -0.189939444995E+03    0.80092E-05   -0.51790E-05   768   0.224E-02
    149 T=   328. E= -.18766865E+03 F= -.18993944E+03 E0= -.18989307E+03  EK= 0.22928E+01 SP= -.71E-01 SK= 0.49E-01
    150 T=   343. E= -.18764518E+03 F= -.18994334E+03 E0= -.18994334E+03  EK= 0.23963E+01 SP= -.14E+00 SK= 0.41E-01
    151 T=   356. E= -.18764550E+03 F= -.18996415E+03 E0= -.18996415E+03  EK= 0.24873E+01 SP= -.20E+00 SK= 0.30E-01
    152 T=   367. E= -.18764579E+03 F= -.18997733E+03 E0= -.18997733E+03  EK= 0.25614E+01 SP= -.25E+00 SK= 0.20E-01
    153 T=   374. E= -.18764599E+03 F= -.18998116E+03 E0= -.18998116E+03  EK= 0.26135E+01 SP= -.29E+00 SK= 0.11E-01
    154 T=   378. E= -.18764608E+03 F= -.18997482E+03 E0= -.18997482E+03  EK= 0.26402E+01 SP= -.32E+00 SK= 0.37E-02
 bond charge predicted
       N       E                     dE             d eps       ncg     rms          rms(c)
DAV:   1    -0.189750572383E+03    0.18888E+00   -0.21882E+02   768   0.218E+01
DAV:   2    -0.190092773017E+03   -0.34220E+00   -0.34218E+00  1024   0.275E+00
DAV:   3    -0.190096965948E+03   -0.41929E-02   -0.41929E-02  1024   0.231E-01
DAV:   4    -0.190096974153E+03   -0.82051E-05   -0.82063E-05  1024   0.810E-03    0.218E+00
DAV:   5    -0.190074081838E+03    0.22892E-01   -0.91640E-02  1152   0.765E-01    0.151E+00
DAV:   6    -0.190066655811E+03    0.74260E-02   -0.47517E-02  1152   0.556E-01    0.866E-01
DAV:   7    -0.190066365979E+03    0.28983E-03   -0.20462E-02  1024   0.349E-01    0.190E-01
DAV:   8    -0.190066490110E+03   -0.12413E-03   -0.41301E-03   896   0.161E-01    0.881E-02
DAV:   9    -0.190066404149E+03    0.85961E-04   -0.60918E-04  1024   0.716E-02    0.650E-02
DAV:  10    -0.190066368290E+03    0.35860E-04   -0.40613E-04   768   0.555E-02    0.277E-02
DAV:  11    -0.190066366441E+03    0.18483E-05   -0.82623E-05  1024   0.249E-02
    155 T=   380. E= -.18773985E+03 F= -.19006637E+03 E0= -.19002007E+03  EK= 0.26541E+01 SP= -.33E+00 SK= 0.35E-03
    156 T=   380. E= -.18769973E+03 F= -.19002690E+03 E0= -.19002690E+03  EK= 0.26535E+01 SP= -.33E+00 SK= 0.62E-03
    157 T=   376. E= -.18769966E+03 F= -.19001801E+03 E0= -.19001801E+03  EK= 0.26259E+01 SP= -.31E+00 SK= 0.45E-02
    158 T=   369. E= -.18769951E+03 F= -.19000252E+03 E0= -.19000252E+03  EK= 0.25758E+01 SP= -.28E+00 SK= 0.11E-01
    159 T=   359. E= -.18769931E+03 F= -.18998105E+03 E0= -.18998105E+03  EK= 0.25060E+01 SP= -.24E+00 SK= 0.20E-01
 bond charge predicted
       N       E                     dE             d eps       ncg     rms          rms(c)
DAV:   1    -0.189838387054E+03    0.22798E+00   -0.15289E+02   768   0.181E+01
DAV:   2    -0.190063292993E+03   -0.22491E+00   -0.22490E+00  1024   0.231E+00
DAV:   3    -0.190065644770E+03   -0.23518E-02   -0.23518E-02  1024   0.195E-01
DAV:   4    -0.190065648596E+03   -0.38253E-05   -0.38242E-05  1024   0.673E-03    0.178E+00
DAV:   5    -0.190049387525E+03    0.16261E-01   -0.41091E-02  1152   0.555E-01    0.119E+00
DAV:   6    -0.190048237555E+03    0.11500E-02   -0.30323E-02  1280   0.458E-01    0.693E-01
DAV:   7    -0.190047150401E+03    0.10872E-02   -0.15586E-02  1024   0.341E-01    0.184E-01
DAV:   8    -0.190047246771E+03   -0.96371E-04   -0.56292E-03  1024   0.200E-01    0.110E-01
DAV:   9    -0.190047112357E+03    0.13441E-03   -0.95732E-04   768   0.878E-02    0.565E-02
DAV:  10    -0.190047081695E+03    0.30662E-04   -0.24934E-04  1024   0.368E-02    0.214E-02
DAV:  11    -0.190047081162E+03    0.53256E-06   -0.46602E-05  1024   0.190E-02
    160 T=   348. E= -.18778354E+03 F= -.19004708E+03 E0= -.19000043E+03  EK= 0.24288E+01 SP= -.19E+00 SK= 0.29E-01
    161 T=   336. E= -.18773800E+03 F= -.18998591E+03 E0= -.18998591E+03  EK= 0.23466E+01 SP= -.14E+00 SK= 0.37E-01
    162 T=   323. E= -.18773788E+03 F= -.18996613E+03 E0= -.18996613E+03  EK= 0.22559E+01 SP= -.71E-01 SK= 0.44E-01
    163 T=   310. E= -.18773778E+03 F= -.18994488E+03 E0= -.18994488E+03  EK= 0.21624E+01 SP= -.27E-02 SK= 0.47E-01
    164 T=   296. E= -.18773772E+03 F= -.18992297E+03 E0= -.18992297E+03  EK= 0.20695E+01 SP= 0.68E-01 SK= 0.48E-01
    165 T=   284. E= -.18773770E+03 F= -.18990124E+03 E0= -.18990124E+03  EK= 0.19803E+01 SP= 0.14E+00 SK= 0.46E-01
    166 T=   272. E= -.18773771E+03 F= -.18988051E+03 E0= -.18988051E+03  EK= 0.18977E+01 SP= 0.20E+00 SK= 0.41E-01
 bond charge predicted
       N       E                     dE             d eps       ncg     rms          rms(c)
DAV:   1    -0.189624838848E+03    0.42224E+00   -0.22051E+02   768   0.218E+01
DAV:   2    -0.189965710305E+03   -0.34087E+00   -0.34086E+00   768   0.281E+00
DAV:   3    -0.189970028014E+03   -0.43177E-02   -0.43177E-02  1280   0.256E-01
DAV:   4    -0.189970037578E+03   -0.95647E-05   -0.95642E-05   768   0.980E-03    0.196E+00
DAV:   5    -0.189947972654E+03    0.22065E-01   -0.38630E-02  1152   0.583E-01    0.129E+00
DAV:   6    -0.189949481292E+03   -0.15086E-02   -0.36910E-02  1280   0.527E-01    0.718E-01
DAV:   7    -0.189947470513E+03    0.20108E-02   -0.26248E-02  1024   0.458E-01    0.262E-01
DAV:   8    -0.189947388042E+03    0.82472E-04   -0.10210E-02  1024   0.266E-01    0.137E-01
DAV:   9    -0.189947160817E+03    0.22722E-03   -0.13842E-03  1024   0.102E-01    0.656E-02
DAV:  10    -0.189947126495E+03    0.34322E-04   -0.34455E-04  1024   0.425E-02    0.271E-02
DAV:  11    -0.189947124972E+03    0.15232E-05   -0.79558E-05  1024   0.254E-02
    167 T=   262. E= -.18781928E+03 F= -.18994712E+03 E0= -.18989983E+03  EK= 0.18276E+01 SP= 0.27E+00 SK= 0.34E-01
    168 T=   254. E= -.18779679E+03 F= -.18991557E+03 E0= -.18991557E+03  EK= 0.17708E+01 SP= 0.32E+00 SK= 0.26E-01
    169 T=   247. E= -.18779684E+03 F= -.18990864E+03 E0= -.18990864E+03  EK= 0.17242E+01 SP= 0.37E+00 SK= 0.18E-01
    170 T=   242. E= -.18779689E+03 F= -.18990457E+03 E0= -.18990457E+03  EK= 0.16887E+01 SP= 0.41E+00 SK= 0.11E-01
    171 T=   239. E= -.18779693E+03 F= -.18990354E+03 E0= -.18990354E+03  EK= 0.16648E+01 SP= 0.44E+00 SK= 0.53E-02
    172 T=   237. E= -.18779696E+03 F= -.18990563E+03 E0= -.18990563E+03  EK= 0.16527E+01 SP= 0.45E+00 SK= 0.15E-02
    173 T=   237. E= -.18779697E+03 F= -.18991085E+03 E0= -.18991085E+03  EK= 0.16523E+01 SP= 0.46E+00 SK= 0.25E-04
    174 T=   238. E= -.18779697E+03 F= -.18991908E+03 E0= -.18991908E+03  EK= 0.16636E+01 SP= 0.46E+00 SK= 0.82E-03
    175 T=   242. E= -.18779695E+03 F= -.18993011E+03 E0= -.18993011E+03  EK= 0.16861E+01 SP= 0.44E+00 SK= 0.37E-02
    176 T=   246. E= -.18779692E+03 F= -.18994366E+03 E0= -.18994366E+03  EK= 0.17196E+01 SP= 0.42E+00 SK= 0.83E-02
 bond charge predicted
       N       E                     dE             d eps       ncg     rms          rms(c)
DAV:   1    -0.189552607686E+03    0.39452E+00   -0.33599E+02   768   0.276E+01
DAV:   2    -0.190039223194E+03   -0.48662E+00   -0.48659E+00   768   0.348E+00
DAV:   3    -0.190044979247E+03   -0.57561E-02   -0.57560E-02  1280   0.324E-01
DAV:   4    -0.190044993486E+03   -0.14238E-04   -0.14239E-04   768   0.131E-02    0.217E+00
DAV:   5    -0.190014376937E+03    0.30617E-01   -0.41405E-02  1024   0.637E-01    0.143E+00
DAV:   6    -0.190015731548E+03   -0.13546E-02   -0.45669E-02  1024   0.646E-01    0.642E-01
DAV:   7    -0.190013737326E+03    0.19942E-02   -0.37904E-02  1024   0.571E-01    0.324E-01
DAV:   8    -0.190013146224E+03    0.59110E-03   -0.11527E-02  1024   0.288E-01    0.137E-01
DAV:   9    -0.190012921651E+03    0.22457E-03   -0.12323E-03  1024   0.934E-02    0.729E-02
DAV:  10    -0.190012879839E+03    0.41813E-04   -0.43285E-04  1024   0.454E-02    0.289E-02
DAV:  11    -0.190012878383E+03    0.14555E-05   -0.11181E-04  1024   0.292E-02    0.171E-02
DAV:  12    -0.190012876479E+03    0.19045E-05   -0.36065E-05   896   0.167E-02
    177 T=   253. E= -.18784807E+03 F= -.19001288E+03 E0= -.18996538E+03  EK= 0.17656E+01 SP= 0.39E+00 SK= 0.14E-01
    178 T=   261. E= -.18779198E+03 F= -.18997655E+03 E0= -.18997655E+03  EK= 0.18212E+01 SP= 0.34E+00 SK= 0.20E-01
    179 T=   270. E= -.18779195E+03 F= -.18999490E+03 E0= -.18999490E+03  EK= 0.18824E+01 SP= 0.29E+00 SK= 0.26E-01
    180 T=   279. E= -.18779194E+03 F= -.19001380E+03 E0= -.19001380E+03  EK= 0.19504E+01 SP= 0.24E+00 SK= 0.30E-01
    181 T=   290. E= -.18779195E+03 F= -.19003266E+03 E0= -.19003266E+03  EK= 0.20235E+01 SP= 0.18E+00 SK= 0.33E-01
    182 T=   301. E= -.18779199E+03 F= -.19005087E+03 E0= -.19005087E+03  EK= 0.20997E+01 SP= 0.13E+00 SK= 0.34E-01
    183 T=   312. E= -.18779204E+03 F= -.19006781E+03 E0= -.19006781E+03  EK= 0.21766E+01 SP= 0.66E-01 SK= 0.33E-01
    184 T=   323. E= -.18779212E+03 F= -.19008293E+03 E0= -.19008293E+03  EK= 0.22517E+01 SP= 0.96E-02 SK= 0.30E-01
    185 T=   333. E= -.18779221E+03 F= -.19009572E+03 E0= -.19009572E+03  EK= 0.23221E+01 SP= -.43E-01 SK= 0.25E-01
    186 T=   342. E= -.18779230E+03 F= -.19010579E+03 E0= -.19010579E+03  EK= 0.23852E+01 SP= -.90E-01 SK= 0.19E-01
 bond charge predicted
       N       E                     dE             d eps       ncg     rms          rms(c)
DAV:   1    -0.189476636366E+03    0.53624E+00   -0.51110E+02   768   0.356E+01
DAV:   2    -0.190291566122E+03   -0.81493E+00   -0.81485E+00  1024   0.443E+00
DAV:   3    -0.190298386910E+03   -0.68208E-02   -0.68208E-02   896   0.370E-01
DAV:   4    -0.190298460424E+03   -0.73514E-04   -0.73514E-04  1152   0.312E-02    0.339E+00
DAV:   5    -0.190242895006E+03    0.55565E-01   -0.80613E-02  1024   0.904E-01    0.227E+00
DAV:   6    -0.190245743642E+03   -0.28486E-02   -0.12891E-01  1024   0.118E+00    0.978E-01
DAV:   7    -0.190238319028E+03    0.74246E-02   -0.91742E-02  1024   0.947E-01    0.368E-01
DAV:   8    -0.190237397643E+03    0.92138E-03   -0.18334E-02   896   0.362E-01    0.190E-01
DAV:   9    -0.190236959612E+03    0.43803E-03   -0.20134E-03  1024   0.124E-01    0.983E-02
DAV:  10    -0.190236844284E+03    0.11533E-03   -0.86912E-04   768   0.602E-02    0.346E-02
DAV:  11    -0.190236841602E+03    0.26820E-05   -0.16432E-04  1024   0.358E-02    0.199E-02
DAV:  12    -0.190236838757E+03    0.28457E-05   -0.32266E-05   896   0.172E-02
    187 T=   350. E= -.18791134E+03 F= -.19023684E+03 E0= -.19018942E+03  EK= 0.24433E+01 SP= -.13E+00 SK= 0.13E-01
    188 T=   357. E= -.18778223E+03 F= -.19011657E+03 E0= -.19011657E+03  EK= 0.24892E+01 SP= -.16E+00 SK= 0.69E-02
    189 T=   360. E= -.18778227E+03 F= -.19011705E+03 E0= -.19011705E+03  EK= 0.25154E+01 SP= -.18E+00 SK= 0.26E-02
    190 T=   362. E= -.18778228E+03 F= -.19011438E+03 E0= -.19011438E+03  EK= 0.25262E+01 SP= -.19E+00 SK= 0.33E-03
 bond charge predicted
       N       E                     dE             d eps       ncg     rms          rms(c)
DAV:   1    -0.190122916820E+03    0.11392E+00   -0.10861E+02   768   0.164E+01
DAV:   2    -0.190292631065E+03   -0.16971E+00   -0.16971E+00  1024   0.201E+00
DAV:   3    -0.190293767245E+03   -0.11362E-02   -0.11362E-02   896   0.159E-01
DAV:   4    -0.190293780791E+03   -0.13546E-04   -0.13548E-04  1152   0.132E-02    0.160E+00
DAV:   5    -0.190281141421E+03    0.12639E-01   -0.19677E-02  1024   0.456E-01    0.108E+00
DAV:   6    -0.190282416766E+03   -0.12753E-02   -0.32900E-02  1024   0.593E-01    0.511E-01
DAV:   7    -0.190280470876E+03    0.19459E-02   -0.25412E-02  1024   0.480E-01    0.184E-01
DAV:   8    -0.190280246561E+03    0.22431E-03   -0.49596E-03   896   0.184E-01    0.942E-02
DAV:   9    -0.190280141509E+03    0.10505E-03   -0.44022E-04   896   0.587E-02    0.484E-02
DAV:  10    -0.190280110905E+03    0.30604E-04   -0.23260E-04  1024   0.309E-02    0.195E-02
DAV:  11    -0.190280109702E+03    0.12035E-05   -0.44891E-05  1024   0.188E-02
    191 T=   362. E= -.18794705E+03 F= -.19028011E+03 E0= -.19023261E+03  EK= 0.25278E+01 SP= -.19E+00 SK= 0.23E-03
    192 T=   361. E= -.18790742E+03 F= -.19024303E+03 E0= -.19024303E+03  EK= 0.25180E+01 SP= -.18E+00 SK= 0.23E-02
    193 T=   357. E= -.18790735E+03 F= -.19024097E+03 E0= -.19024097E+03  EK= 0.24912E+01 SP= -.16E+00 SK= 0.64E-02
    194 T=   351. E= -.18790727E+03 F= -.19023721E+03 E0= -.19023721E+03  EK= 0.24515E+01 SP= -.13E+00 SK= 0.12E-01
    195 T=   344. E= -.18790718E+03 F= -.19023201E+03 E0= -.19023201E+03  EK= 0.24008E+01 SP= -.94E-01 SK= 0.18E-01
    196 T=   335. E= -.18790709E+03 F= -.19022560E+03 E0= -.19022560E+03  EK= 0.23413E+01 SP= -.47E-01 SK= 0.25E-01
    197 T=   326. E= -.18790702E+03 F= -.19021819E+03 E0= -.19021819E+03  EK= 0.22754E+01 SP= 0.57E-02 SK= 0.30E-01
 bond charge predicted
       N       E                     dE             d eps       ncg     rms          rms(c)
DAV:   1    -0.189769198496E+03    0.51091E+00   -0.31968E+02   768   0.279E+01
DAV:   2    -0.190322531092E+03   -0.55333E+00   -0.55329E+00  1024   0.343E+00
DAV:   3    -0.190328753528E+03   -0.62224E-02   -0.62224E-02  1024   0.285E-01
DAV:   4    -0.190328776798E+03   -0.23271E-04   -0.23270E-04  1024   0.127E-02    0.263E+00
DAV:   5    -0.190290816485E+03    0.37960E-01   -0.62101E-02  1024   0.810E-01    0.178E+00
DAV:   6    -0.190293845612E+03   -0.30291E-02   -0.98028E-02  1024   0.100E+00    0.909E-01
DAV:   7    -0.190288263981E+03    0.55816E-02   -0.68690E-02  1024   0.782E-01    0.293E-01
DAV:   8    -0.190287835661E+03    0.42832E-03   -0.13823E-02  1024   0.307E-01    0.163E-01
DAV:   9    -0.190287510639E+03    0.32502E-03   -0.12915E-03  1024   0.103E-01    0.820E-02
DAV:  10    -0.190287426415E+03    0.84224E-04   -0.70329E-04  1024   0.561E-02    0.371E-02
DAV:  11    -0.190287422383E+03    0.40319E-05   -0.15497E-04  1024   0.357E-02    0.182E-02
DAV:  12    -0.190287419334E+03    0.30486E-05   -0.34175E-05  1024   0.154E-02
    198 T=   316. E= -.18798113E+03 F= -.19028742E+03 E0= -.19023984E+03  EK= 0.22089E+01 SP= 0.63E-01 SK= 0.34E-01
    199 T=   307. E= -.18793113E+03 F= -.19023107E+03 E0= -.19023107E+03  EK= 0.21398E+01 SP= 0.12E+00 SK= 0.36E-01
    200 T=   296. E= -.18793112E+03 F= -.19021955E+03 E0= -.19021955E+03  EK= 0.20665E+01 SP= 0.19E+00 SK= 0.37E-01
    201 T=   286. E= -.18793112E+03 F= -.19020661E+03 E0= -.19020661E+03  EK= 0.19945E+01 SP= 0.25E+00 SK= 0.35E-01
    202 T=   276. E= -.18793113E+03 F= -.19019252E+03 E0= -.19019252E+03  EK= 0.19257E+01 SP= 0.30E+00 SK= 0.31E-01
    203 T=   267. E= -.18793114E+03 F= -.19017774E+03 E0= -.19017774E+03  EK= 0.18619E+01 SP= 0.36E+00 SK= 0.26E-01
 bond charge predicted
       N       E                     dE             d eps       ncg     rms          rms(c)
DAV:   1    -0.189983969672E+03    0.30345E+00   -0.18935E+02   768   0.212E+01
DAV:   2    -0.190296621978E+03   -0.31265E+00   -0.31264E+00   768   0.258E+00
DAV:   3    -0.190300150036E+03   -0.35281E-02   -0.35281E-02  1280   0.223E-01
DAV:   4    -0.190300163171E+03   -0.13135E-04   -0.13135E-04   768   0.105E-02    0.186E+00
DAV:   5    -0.190277953952E+03    0.22209E-01   -0.37482E-02  1024   0.619E-01    0.125E+00
DAV:   6    -0.190279444762E+03   -0.14908E-02   -0.57056E-02  1024   0.725E-01    0.707E-01
DAV:   7    -0.190276920291E+03    0.25245E-02   -0.43233E-02  1024   0.591E-01    0.250E-01
DAV:   8    -0.190276520435E+03    0.39986E-03   -0.89365E-03  1024   0.250E-01    0.123E-01
DAV:   9    -0.190276352521E+03    0.16791E-03   -0.81313E-04   896   0.780E-02    0.631E-02
DAV:  10    -0.190276304339E+03    0.48182E-04   -0.38686E-04  1024   0.441E-02    0.289E-02
DAV:  11    -0.190276303541E+03    0.79742E-06   -0.97947E-05  1024   0.299E-02
    204 T=   260. E= -.18803721E+03 F= -.19027630E+03 E0= -.19022899E+03  EK= 0.18118E+01 SP= 0.41E+00 SK= 0.20E-01
    205 T=   254. E= -.18797012E+03 F= -.19020635E+03 E0= -.19020635E+03  EK= 0.17733E+01 SP= 0.45E+00 SK= 0.14E-01
    206 T=   249. E= -.18797016E+03 F= -.19020134E+03 E0= -.19020134E+03  EK= 0.17400E+01 SP= 0.48E+00 SK= 0.85E-02
    207 T=   246. E= -.18797019E+03 F= -.19019733E+03 E0= -.19019733E+03  EK= 0.17153E+01 SP= 0.51E+00 SK= 0.41E-02
    208 T=   244. E= -.18797020E+03 F= -.19019449E+03 E0= -.19019449E+03  EK= 0.16997E+01 SP= 0.52E+00 SK= 0.12E-02
    209 T=   243. E= -.18797020E+03 F= -.19019298E+03 E0= -.19019298E+03  EK= 0.16933E+01 SP= 0.53E+00 SK= 0.11E-04
    210 T=   243. E= -.18797019E+03 F= -.19019290E+03 E0= -.19019290E+03  EK= 0.16964E+01 SP= 0.53E+00 SK= 0.75E-03
    211 T=   245. E= -.18797017E+03 F= -.19019432E+03 E0= -.19019432E+03  EK= 0.17090E+01 SP= 0.51E+00 SK= 0.33E-02
    212 T=   248. E= -.18797014E+03 F= -.19019727E+03 E0= -.19019727E+03  EK= 0.17310E+01 SP= 0.49E+00 SK= 0.75E-02
 bond charge predicted
       N       E                     dE             d eps       ncg     rms          rms(c)
DAV:   1    -0.189794749190E+03    0.48156E+00   -0.33741E+02   768   0.283E+01
DAV:   2    -0.190361111467E+03   -0.56636E+00   -0.56632E+00   768   0.348E+00
DAV:   3    -0.190368988850E+03   -0.78774E-02   -0.78774E-02  1280   0.329E-01
DAV:   4    -0.190369018827E+03   -0.29977E-04   -0.29976E-04   768   0.161E-02    0.229E+00
DAV:   5    -0.190331522029E+03    0.37497E-01   -0.64836E-02  1024   0.784E-01    0.152E+00
DAV:   6    -0.190333412797E+03   -0.18908E-02   -0.93296E-02  1024   0.911E-01    0.914E-01
DAV:   7    -0.190329944550E+03    0.34682E-02   -0.80683E-02  1024   0.787E-01    0.359E-01
DAV:   8    -0.190328930972E+03    0.10136E-02   -0.15956E-02   896   0.339E-01    0.162E-01
DAV:   9    -0.190328723613E+03    0.20736E-03   -0.16215E-03   768   0.107E-01    0.846E-02
DAV:  10    -0.190328650326E+03    0.73288E-04   -0.57781E-04  1024   0.591E-02    0.439E-02
DAV:  11    -0.190328647580E+03    0.27462E-05   -0.22332E-04  1024   0.425E-02    0.234E-02
DAV:  12    -0.190328644633E+03    0.29472E-05   -0.44782E-05   896   0.183E-02
    213 T=   253. E= -.18809341E+03 F= -.19032864E+03 E0= -.19028164E+03  EK= 0.17658E+01 SP= 0.46E+00 SK= 0.13E-01
    214 T=   260. E= -.18802791E+03 F= -.19027473E+03 E0= -.19027473E+03  EK= 0.18117E+01 SP= 0.42E+00 SK= 0.19E-01
    215 T=   267. E= -.18802786E+03 F= -.19028620E+03 E0= -.19028620E+03  EK= 0.18646E+01 SP= 0.37E+00 SK= 0.24E-01
    216 T=   276. E= -.18802782E+03 F= -.19029849E+03 E0= -.19029849E+03  EK= 0.19246E+01 SP= 0.32E+00 SK= 0.30E-01
    217 T=   285. E= -.18802779E+03 F= -.19031144E+03 E0= -.19031144E+03  EK= 0.19909E+01 SP= 0.26E+00 SK= 0.33E-01
    218 T=   295. E= -.18802778E+03 F= -.19032493E+03 E0= -.19032493E+03  EK= 0.20619E+01 SP= 0.20E+00 SK= 0.35E-01
    219 T=   306. E= -.18802779E+03 F= -.19033884E+03 E0= -.19033884E+03  EK= 0.21362E+01 SP= 0.14E+00 SK= 0.35E-01
    220 T=   317. E= -.18802782E+03 F= -.19035304E+03 E0= -.19035304E+03  EK= 0.22118E+01 SP= 0.81E-01 SK= 0.33E-01
    221 T=   328. E= -.18802787E+03 F= -.19036745E+03 E0= -.19036745E+03  EK= 0.22867E+01 SP= 0.24E-01 SK= 0.29E-01
    222 T=   338. E= -.18802794E+03 F= -.19038203E+03 E0= -.19038203E+03  EK= 0.23583E+01 SP= -.27E-01 SK= 0.23E-01
 bond charge predicted
       N       E                     dE             d eps       ncg     rms          rms(c)
DAV:   1    -0.189566054179E+03    0.76259E+00   -0.51195E+02   768   0.351E+01
DAV:   2    -0.190509038204E+03   -0.94298E+00   -0.94288E+00  1024   0.450E+00
DAV:   3    -0.190523619929E+03   -0.14582E-01   -0.14582E-01  1024   0.422E-01
DAV:   4    -0.190523666080E+03   -0.46152E-04   -0.46151E-04  1024   0.185E-02    0.328E+00
DAV:   5    -0.190464619897E+03    0.59046E-01   -0.21222E-01  1024   0.123E+00    0.228E+00
DAV:   6    -0.190451809397E+03    0.12811E-01   -0.16301E-01  1152   0.110E+00    0.139E+00
DAV:   7    -0.190449816557E+03    0.19928E-02   -0.11094E-01  1024   0.909E-01    0.641E-01
DAV:   8    -0.190447871274E+03    0.19453E-02   -0.45285E-02   896   0.559E-01    0.266E-01
DAV:   9    -0.190447098092E+03    0.77318E-03   -0.59614E-03  1024   0.202E-01    0.133E-01
DAV:  10    -0.190446938250E+03    0.15984E-03   -0.14390E-03  1024   0.990E-02    0.758E-02
DAV:  11    -0.190446907297E+03    0.30953E-04   -0.61107E-04  1024   0.660E-02    0.360E-02
DAV:  12    -0.190446902427E+03    0.48699E-05   -0.16823E-04  1024   0.336E-02    0.182E-02
DAV:  13    -0.190446900123E+03    0.23033E-05   -0.25902E-05   768   0.149E-02
    223 T=   347. E= -.18808295E+03 F= -.19044690E+03 E0= -.19039883E+03  EK= 0.24196E+01 SP= -.72E-01 SK= 0.16E-01
    224 T=   354. E= -.18803716E+03 F= -.19040993E+03 E0= -.19040993E+03  EK= 0.24715E+01 SP= -.11E+00 SK= 0.10E-01
    225 T=   361. E= -.18803723E+03 F= -.19042321E+03 E0= -.19042321E+03  EK= 0.25177E+01 SP= -.14E+00 SK= 0.49E-02
    226 T=   366. E= -.18803728E+03 F= -.19043673E+03 E0= -.19043673E+03  EK= 0.25519E+01 SP= -.15E+00 SK= 0.13E-02
 bond charge predicted
       N       E                     dE             d eps       ncg     rms          rms(c)
DAV:   1    -0.190293354293E+03    0.15355E+00   -0.10865E+02   768   0.160E+01
DAV:   2    -0.190466017602E+03   -0.17266E+00   -0.17266E+00   768   0.203E+00
DAV:   3    -0.190467660716E+03   -0.16431E-02   -0.16431E-02  1280   0.177E-01
DAV:   4    -0.190467663735E+03   -0.30191E-05   -0.30192E-05   768   0.704E-03    0.161E+00
DAV:   5    -0.190454319814E+03    0.13344E-01   -0.52065E-02  1024   0.592E-01    0.113E+00
DAV:   6    -0.190451134121E+03    0.31857E-02   -0.43580E-02   896   0.545E-01    0.712E-01
DAV:   7    -0.190451226902E+03   -0.92781E-04   -0.35629E-02  1024   0.506E-01    0.409E-01
DAV:   8    -0.190450100577E+03    0.11263E-02   -0.15823E-02   896   0.328E-01    0.134E-01
DAV:   9    -0.190449912911E+03    0.18767E-03   -0.17682E-03   896   0.104E-01    0.664E-02
DAV:  10    -0.190449869746E+03    0.43165E-04   -0.38237E-04  1024   0.510E-02    0.413E-02
DAV:  11    -0.190449859006E+03    0.10739E-04   -0.16220E-04  1024   0.330E-02    0.178E-02
DAV:  12    -0.190449857813E+03    0.11932E-05   -0.41930E-05  1024   0.171E-02
    227 T=   367. E= -.18804493E+03 F= -.19044986E+03 E0= -.19040097E+03  EK= 0.25645E+01 SP= -.16E+00 SK= 0.94E-08
    228 T=   366. E= -.18801787E+03 F= -.19041905E+03 E0= -.19041905E+03  EK= 0.25536E+01 SP= -.15E+00 SK= 0.13E-02
    229 T=   362. E= -.18801778E+03 F= -.19041380E+03 E0= -.19041380E+03  EK= 0.25275E+01 SP= -.14E+00 SK= 0.50E-02
    230 T=   356. E= -.18801766E+03 F= -.19040727E+03 E0= -.19040727E+03  EK= 0.24877E+01 SP= -.11E+00 SK= 0.11E-01
    231 T=   349. E= -.18801751E+03 F= -.19040028E+03 E0= -.19040028E+03  EK= 0.24366E+01 SP= -.71E-01 SK= 0.17E-01
    232 T=   341. E= -.18801736E+03 F= -.19039376E+03 E0= -.19039376E+03  EK= 0.23772E+01 SP= -.25E-01 SK= 0.24E-01
    233 T=   331. E= -.18801722E+03 F= -.19038878E+03 E0= -.19038878E+03  EK= 0.23129E+01 SP= 0.28E-01 SK= 0.31E-01
 bond charge predicted
       N       E                     dE             d eps       ncg     rms          rms(c)
DAV:   1    -0.189903512832E+03    0.54635E+00   -0.31485E+02   768   0.272E+01
DAV:   2    -0.190458732459E+03   -0.55522E+00   -0.55516E+00   768   0.340E+00
DAV:   3    -0.190464880635E+03   -0.61482E-02   -0.61482E-02  1280   0.296E-01
DAV:   4    -0.190464895462E+03   -0.14828E-04   -0.14828E-04   768   0.119E-02    0.269E+00
DAV:   5    -0.190424676775E+03    0.40219E-01   -0.11718E-01  1024   0.894E-01    0.183E+00
DAV:   6    -0.190421072814E+03    0.36040E-02   -0.12934E-01  1152   0.937E-01    0.122E+00
DAV:   7    -0.190419245051E+03    0.18278E-02   -0.12227E-01  1024   0.919E-01    0.718E-01
DAV:   8    -0.190415646417E+03    0.35986E-02   -0.50641E-02  1024   0.570E-01    0.246E-01
DAV:   9    -0.190415032914E+03    0.61350E-03   -0.56414E-03  1024   0.182E-01    0.123E-01
DAV:  10    -0.190414911837E+03    0.12108E-03   -0.14405E-03  1024   0.952E-02    0.814E-02
DAV:  11    -0.190414870766E+03    0.41071E-04   -0.58565E-04  1024   0.620E-02    0.318E-02
DAV:  12    -0.190414867025E+03    0.37414E-05   -0.12576E-04  1024   0.303E-02    0.169E-02
DAV:  13    -0.190414865161E+03    0.18638E-05   -0.20456E-05   768   0.133E-02
    234 T=   322. E= -.18804611E+03 F= -.19041487E+03 E0= -.19036466E+03  EK= 0.22463E+01 SP= 0.87E-01 SK= 0.36E-01
    235 T=   313. E= -.18802334E+03 F= -.19039344E+03 E0= -.19039344E+03  EK= 0.21819E+01 SP= 0.15E+00 SK= 0.39E-01
    236 T=   304. E= -.18802328E+03 F= -.19040012E+03 E0= -.19040012E+03  EK= 0.21224E+01 SP= 0.21E+00 SK= 0.41E-01
    237 T=   296. E= -.18802323E+03 F= -.19041142E+03 E0= -.19041142E+03  EK= 0.20685E+01 SP= 0.28E+00 SK= 0.41E-01
    238 T=   290. E= -.18802319E+03 F= -.19042831E+03 E0= -.19042831E+03  EK= 0.20224E+01 SP= 0.34E+00 SK= 0.40E-01
    239 T=   285. E= -.18802315E+03 F= -.19045186E+03 E0= -.19045186E+03  EK= 0.19859E+01 SP= 0.41E+00 SK= 0.37E-01
 bond charge predicted
       N       E                     dE             d eps       ncg     rms          rms(c)
DAV:   1    -0.190148981061E+03    0.26589E+00   -0.19739E+02   768   0.214E+01
DAV:   2    -0.190472087115E+03   -0.32311E+00   -0.32308E+00   768   0.260E+00
DAV:   3    -0.190475099955E+03   -0.30128E-02   -0.30128E-02  1280   0.221E-01
DAV:   4    -0.190475107424E+03   -0.74689E-05   -0.74691E-05   768   0.936E-03    0.192E+00
DAV:   5    -0.190448748616E+03    0.26359E-01   -0.46317E-02  1024   0.568E-01    0.124E+00
DAV:   6    -0.190448954146E+03   -0.20553E-03   -0.56907E-02  1024   0.631E-01    0.808E-01
DAV:   7    -0.190446261609E+03    0.26925E-02   -0.52060E-02  1024   0.606E-01    0.429E-01
DAV:   8    -0.190445436349E+03    0.82526E-03   -0.21499E-02  1024   0.362E-01    0.213E-01
DAV:   9    -0.190445024372E+03    0.41198E-03   -0.35847E-03  1024   0.140E-01    0.100E-01
DAV:  10    -0.190444959750E+03    0.64622E-04   -0.86972E-04  1024   0.735E-02    0.614E-02
DAV:  11    -0.190444940448E+03    0.19301E-04   -0.38941E-04  1024   0.498E-02    0.288E-02
DAV:  12    -0.190444935310E+03    0.51387E-05   -0.84602E-05  1024   0.250E-02
    240 T=   279. E= -.18799573E+03 F= -.19044494E+03 E0= -.19039419E+03  EK= 0.19497E+01 SP= 0.47E+00 SK= 0.33E-01
    241 T=   274. E= -.18799243E+03 F= -.19045805E+03 E0= -.19045805E+03  EK= 0.19140E+01 SP= 0.52E+00 SK= 0.29E-01
    242 T=   270. E= -.18799245E+03 F= -.19047937E+03 E0= -.19047937E+03  EK= 0.18879E+01 SP= 0.58E+00 SK= 0.24E-01
    243 T=   268. E= -.18799246E+03 F= -.19050459E+03 E0= -.19050459E+03  EK= 0.18708E+01 SP= 0.62E+00 SK= 0.19E-01
    244 T=   267. E= -.18799244E+03 F= -.19053407E+03 E0= -.19053407E+03  EK= 0.18632E+01 SP= 0.66E+00 SK= 0.15E-01
 bond charge predicted
       N       E                     dE             d eps       ncg     rms          rms(c)
DAV:   1    -0.190346464982E+03    0.98475E-01   -0.13444E+02   768   0.176E+01
DAV:   2    -0.190562241097E+03   -0.21578E+00   -0.21576E+00  1024   0.211E+00
DAV:   3    -0.190563984556E+03   -0.17435E-02   -0.17435E-02  1024   0.170E-01
DAV:   4    -0.190563989343E+03   -0.47862E-05   -0.47865E-05  1024   0.742E-03    0.144E+00
DAV:   5    -0.190544381703E+03    0.19608E-01   -0.23609E-02  1024   0.396E-01    0.890E-01
DAV:   6    -0.190544127241E+03    0.25446E-03   -0.25050E-02  1024   0.436E-01    0.497E-01
[...]
Warning: ieee_inexact is signaling
FORTRAN STOP
Warning: ieee_invalid is signaling
Warning: ieee_divide_by_zero is signaling
Warning: ieee_underflow is signaling
Warning: ieee_inexact is signaling
FORTRAN STOP
Warning: ieee_invalid is signaling
Warning: ieee_divide_by_zero is signaling
Warning: ieee_underflow is signaling
Warning: ieee_inexact is signaling
FORTRAN STOP
Warning: ieee_invalid is signaling
Warning: ieee_divide_by_zero is signaling
Warning: ieee_underflow is signaling
Warning: ieee_inexact is signaling
FORTRAN STOP
Warning: ieee_invalid is signaling
Warning: ieee_divide_by_zero is signaling
Warning: ieee_underflow is signaling
Warning: ieee_inexact is signaling
FORTRAN STOP
Warning: ieee_invalid is signaling
Warning: ieee_divide_by_zero is signaling
Warning: ieee_underflow is signaling
Warning: ieee_inexact is signaling
FORTRAN STOP
Warning: ieee_invalid is signaling
Warning: ieee_divide_by_zero is signaling
Warning: ieee_underflow is signaling
Warning: ieee_inexact is signaling
FORTRAN STOP
Warning: ieee_invalid is signaling
Warning: ieee_divide_by_zero is signaling
Warning: ieee_underflow is signaling
Warning: ieee_inexact is signaling
FORTRAN STOP
Warning: ieee_invalid is signaling
Warning: ieee_divide_by_zero is signaling
Warning: ieee_underflow is signaling
Warning: ieee_inexact is signaling
FORTRAN STOP
Warning: ieee_invalid is signaling
Warning: ieee_divide_by_zero is signaling
Warning: ieee_underflow is signaling
Warning: ieee_inexact is signaling
FORTRAN STOP
Warning: ieee_invalid is signaling
Warning: ieee_divide_by_zero is signaling
Warning: ieee_underflow is signaling
Warning: ieee_inexact is signaling
FORTRAN STOP
Warning: ieee_invalid is signaling
Warning: ieee_divide_by_zero is signaling
Warning: ieee_underflow is signaling
Warning: ieee_inexact is signaling
FORTRAN STOP
Warning: ieee_invalid is signaling
Warning: ieee_divide_by_zero is signaling
Warning: ieee_underflow is signaling
Warning: ieee_inexact is signaling
FORTRAN STOP
Warning: ieee_invalid is signaling
Warning: ieee_divide_by_zero is signaling
Warning: ieee_underflow is signaling
Warning: ieee_inexact is signaling
FORTRAN STOP
Warning: ieee_invalid is signaling
Warning: ieee_divide_by_zero is signaling
Warning: ieee_underflow is signaling
Warning: ieee_inexact is signaling
FORTRAN STOP
Warning: ieee_invalid is signaling
Warning: ieee_divide_by_zero is signaling
Warning: ieee_underflow is signaling
Warning: ieee_inexact is signaling
FORTRAN STOP
Warning: ieee_invalid is signaling
Warning: ieee_divide_by_zero is signaling
Warning: ieee_underflow is signaling
Warning: ieee_inexact is signaling
FORTRAN STOP
Warning: ieee_invalid is signaling
Warning: ieee_divide_by_zero is signaling
Warning: ieee_underflow is signaling
Warning: ieee_inexact is signaling
FORTRAN STOP
Warning: ieee_invalid is signaling
Warning: ieee_divide_by_zero is signaling
Warning: ieee_underflow is signaling
Warning: ieee_inexact is signaling
FORTRAN STOP
Warning: ieee_invalid is signaling
Warning: ieee_divide_by_zero is signaling
Warning: ieee_underflow is signaling
Warning: ieee_inexact is signaling
FORTRAN STOP
Warning: ieee_invalid is signaling
Warning: ieee_divide_by_zero is signaling
Warning: ieee_underflow is signaling
Warning: ieee_inexact is signaling
FORTRAN STOP
Warning: ieee_invalid is signaling
Warning: ieee_divide_by_zero is signaling
Warning: ieee_underflow is signaling
Warning: ieee_inexact is signaling
FORTRAN STOP
Warning: ieee_invalid is signaling
Warning: ieee_divide_by_zero is signaling
Warning: ieee_underflow is signaling
Warning: ieee_inexact is signaling
FORTRAN STOP
Warning: ieee_invalid is signaling
Warning: ieee_divide_by_zero is signaling
Warning: ieee_underflow is signaling
Warning: ieee_inexact is signaling
FORTRAN STOP
Warning: ieee_invalid is signaling
Warning: ieee_divide_by_zero is signaling
Warning: ieee_underflow is signaling
Warning: ieee_inexact is signaling
FORTRAN STOP
Warning: ieee_invalid is signaling
Warning: ieee_divide_by_zero is signaling
Warning: ieee_underflow is signaling
Warning: ieee_inexact is signaling
FORTRAN STOP
Warning: ieee_invalid is signaling
Warning: ieee_divide_by_zero is signaling
Warning: ieee_underflow is signaling
Warning: ieee_inexact is signaling
FORTRAN STOP
Warning: ieee_invalid is signaling
Warning: ieee_divide_by_zero is signaling
Warning: ieee_underflow is signaling
Warning: ieee_inexact is signaling
FORTRAN STOP
Warning: ieee_invalid is signaling
Warning: ieee_divide_by_zero is signaling
Warning: ieee_underflow is signaling
Warning: ieee_inexact is signaling
FORTRAN STOP
Warning: ieee_invalid is signaling
Warning: ieee_divide_by_zero is signaling
Warning: ieee_underflow is signaling
Warning: ieee_inexact is signaling
FORTRAN STOP
Warning: ieee_invalid is signaling
Warning: ieee_divide_by_zero is signaling
Warning: ieee_underflow is signaling
Warning: ieee_inexact is signaling
FORTRAN STOP
Warning: ieee_invalid is signaling
Warning: ieee_divide_by_zero is signaling
Warning: ieee_underflow is signaling
Warning: ieee_inexact is signaling
FORTRAN STOP
Warning: ieee_invalid is signaling
Warning: ieee_divide_by_zero is signaling
Warning: ieee_underflow is signaling
Warning: ieee_inexact is signaling
FORTRAN STOP
Warning: ieee_invalid is signaling
Warning: ieee_divide_by_zero is signaling
Warning: ieee_underflow is signaling
Warning: ieee_inexact is signaling
FORTRAN STOP
Warning: ieee_invalid is signaling
Warning: ieee_divide_by_zero is signaling
Warning: ieee_underflow is signaling
Warning: ieee_inexact is signaling
FORTRAN STOP
Warning: ieee_invalid is signaling
Warning: ieee_divide_by_zero is signaling
Warning: ieee_underflow is signaling
Warning: ieee_inexact is signaling
FORTRAN STOP
Warning: ieee_invalid is signaling
Warning: ieee_divide_by_zero is signaling
Warning: ieee_underflow is signaling
Warning: ieee_inexact is signaling
FORTRAN STOP
Warning: ieee_invalid is signaling
Warning: ieee_divide_by_zero is signaling
Warning: ieee_underflow is signaling
Warning: ieee_inexact is signaling
FORTRAN STOP
Warning: ieee_invalid is signaling
Warning: ieee_divide_by_zero is signaling
Warning: ieee_underflow is signaling
Warning: ieee_inexact is signaling
FORTRAN STOP
Warning: ieee_invalid is signaling
Warning: ieee_divide_by_zero is signaling
Warning: ieee_underflow is signaling
Warning: ieee_inexact is signaling
FORTRAN STOP
Warning: ieee_invalid is signaling
Warning: ieee_divide_by_zero is signaling
Warning: ieee_underflow is signaling
Warning: ieee_inexact is signaling
FORTRAN STOP
Warning: ieee_invalid is signaling
Warning: ieee_divide_by_zero is signaling
Warning: ieee_underflow is signaling
Warning: ieee_inexact is signaling
FORTRAN STOP
Warning: ieee_invalid is signaling
Warning: ieee_divide_by_zero is signaling
Warning: ieee_underflow is signaling
Warning: ieee_inexact is signaling
FORTRAN STOP
Warning: ieee_invalid is signaling
Warning: ieee_divide_by_zero is signaling
Warning: ieee_underflow is signaling
Warning: ieee_inexact is signaling
FORTRAN STOP
Warning: ieee_invalid is signaling
Warning: ieee_divide_by_zero is signaling
Warning: ieee_underflow is signaling
Warning: ieee_inexact is signaling
FORTRAN STOP
Warning: ieee_invalid is signaling
Warning: ieee_divide_by_zero is signaling
Warning: ieee_underflow is signaling
Warning: ieee_inexact is signaling
FORTRAN STOP
Warning: ieee_invalid is signaling
Warning: ieee_divide_by_zero is signaling
Warning: ieee_underflow is signaling
Warning: ieee_inexact is signaling
FORTRAN STOP
Warning: ieee_invalid is signaling
Warning: ieee_divide_by_zero is signaling
Warning: ieee_underflow is signaling
Warning: ieee_inexact is signaling
FORTRAN STOP
Warning: ieee_invalid is signaling
Warning: ieee_divide_by_zero is signaling
Warning: ieee_underflow is signaling
Warning: ieee_inexact is signaling
FORTRAN STOP
Warning: ieee_invalid is signaling
Warning: ieee_divide_by_zero is signaling
Warning: ieee_underflow is signaling
Warning: ieee_inexact is signaling
FORTRAN STOP
Warning: ieee_invalid is signaling
Warning: ieee_divide_by_zero is signaling
Warning: ieee_underflow is signaling
Warning: ieee_inexact is signaling
FORTRAN STOP
Warning: ieee_invalid is signaling
Warning: ieee_divide_by_zero is signaling
Warning: ieee_underflow is signaling
Warning: ieee_inexact is signaling
FORTRAN STOP
Warning: ieee_invalid is signaling
Warning: ieee_divide_by_zero is signaling
Warning: ieee_underflow is signaling
Warning: ieee_inexact is signaling
FORTRAN STOP
Warning: ieee_invalid is signaling
Warning: ieee_divide_by_zero is signaling
Warning: ieee_underflow is signaling
Warning: ieee_inexact is signaling
FORTRAN STOP
Warning: ieee_invalid is signaling
Warning: ieee_divide_by_zero is signaling
Warning: ieee_underflow is signaling
Warning: ieee_inexact is signaling
FORTRAN STOP
Warning: ieee_invalid is signaling
Warning: ieee_divide_by_zero is signaling
Warning: ieee_underflow is signaling
Warning: ieee_inexact is signaling
FORTRAN STOP
Warning: ieee_invalid is signaling
Warning: ieee_divide_by_zero is signaling
Warning: ieee_underflow is signaling
Warning: ieee_inexact is signaling
FORTRAN STOP
Warning: ieee_invalid is signaling
Warning: ieee_divide_by_zero is signaling
Warning: ieee_underflow is signaling
Warning: ieee_inexact is signaling
FORTRAN STOP
Warning: ieee_invalid is signaling
Warning: ieee_divide_by_zero is signaling
Warning: ieee_underflow is signaling
Warning: ieee_inexact is signaling
FORTRAN STOP
Warning: ieee_invalid is signaling
Warning: ieee_divide_by_zero is signaling
Warning: ieee_underflow is signaling
Warning: ieee_inexact is signaling
FORTRAN STOP
Warning: ieee_invalid is signaling
Warning: ieee_divide_by_zero is signaling
Warning: ieee_underflow is signaling
Warning: ieee_inexact is signaling
FORTRAN STOP
Warning: ieee_invalid is signaling
Warning: ieee_divide_by_zero is signaling
Warning: ieee_underflow is signaling
Warning: ieee_inexact is signaling
FORTRAN STOP
Warning: ieee_invalid is signaling
Warning: ieee_divide_by_zero is signaling
Warning: ieee_underflow is signaling
Warning: ieee_inexact is signaling
FORTRAN STOP
Warning: ieee_invalid is signaling
Warning: ieee_divide_by_zero is signaling
Warning: ieee_underflow is signaling
Warning: ieee_inexact is signaling
FORTRAN STOP
Warning: ieee_invalid is signaling
Warning: ieee_divide_by_zero is signaling
Warning: ieee_underflow is signaling
Warning: ieee_inexact is signaling
FORTRAN STOP
Warning: ieee_invalid is signaling
Warning: ieee_divide_by_zero is signaling
Warning: ieee_underflow is signaling
Warning: ieee_inexact is signaling
FORTRAN STOP
Warning: ieee_invalid is signaling
Warning: ieee_divide_by_zero is signaling
Warning: ieee_underflow is signaling
Warning: ieee_inexact is signaling
FORTRAN STOP
Warning: ieee_invalid is signaling
Warning: ieee_divide_by_zero is signaling
Warning: ieee_underflow is signaling
Warning: ieee_inexact is signaling
FORTRAN STOP
Warning: ieee_invalid is signaling
Warning: ieee_divide_by_zero is signaling
Warning: ieee_underflow is signaling
Warning: ieee_inexact is signaling
FORTRAN STOP
Warning: ieee_invalid is signaling
Warning: ieee_divide_by_zero is signaling
Warning: ieee_underflow is signaling
Warning: ieee_inexact is signaling
FORTRAN STOP
Warning: ieee_invalid is signaling
Warning: ieee_divide_by_zero is signaling
Warning: ieee_underflow is signaling
Warning: ieee_inexact is signaling
FORTRAN STOP
Warning: ieee_invalid is signaling
Warning: ieee_divide_by_zero is signaling
Warning: ieee_underflow is signaling
Warning: ieee_inexact is signaling
FORTRAN STOP
Warning: ieee_invalid is signaling
Warning: ieee_divide_by_zero is signaling
Warning: ieee_underflow is signaling
Warning: ieee_inexact is signaling
FORTRAN STOP
Warning: ieee_invalid is signaling
Warning: ieee_divide_by_zero is signaling
Warning: ieee_underflow is signaling
Warning: ieee_inexact is signaling
FORTRAN STOP
Warning: ieee_invalid is signaling
Warning: ieee_divide_by_zero is signaling
Warning: ieee_underflow is signaling
Warning: ieee_inexact is signaling
FORTRAN STOP
Warning: ieee_invalid is signaling
Warning: ieee_divide_by_zero is signaling
Warning: ieee_underflow is signaling
Warning: ieee_inexact is signaling
FORTRAN STOP
Warning: ieee_invalid is signaling
Warning: ieee_divide_by_zero is signaling
Warning: ieee_underflow is signaling
Warning: ieee_inexact is signaling
FORTRAN STOP
Warning: ieee_invalid is signaling
Warning: ieee_divide_by_zero is signaling
Warning: ieee_underflow is signaling
Warning: ieee_inexact is signaling
FORTRAN STOP
Warning: ieee_invalid is signaling
Warning: ieee_divide_by_zero is signaling
Warning: ieee_underflow is signaling
Warning: ieee_inexact is signaling
FORTRAN STOP
Warning: ieee_invalid is signaling
Warning: ieee_divide_by_zero is signaling
Warning: ieee_underflow is signaling
Warning: ieee_inexact is signaling
FORTRAN STOP
Warning: ieee_invalid is signaling
Warning: ieee_divide_by_zero is signaling
Warning: ieee_underflow is signaling
Warning: ieee_inexact is signaling
FORTRAN STOP
Warning: ieee_invalid is signaling
Warning: ieee_divide_by_zero is signaling
Warning: ieee_underflow is signaling
Warning: ieee_inexact is signaling
FORTRAN STOP
Warning: ieee_invalid is signaling
Warning: ieee_divide_by_zero is signaling
Warning: ieee_underflow is signaling
Warning: ieee_inexact is signaling
FORTRAN STOP
Warning: ieee_invalid is signaling
Warning: ieee_divide_by_zero is signaling
Warning: ieee_underflow is signaling
Warning: ieee_inexact is signaling
FORTRAN STOP
Warning: ieee_invalid is signaling
Warning: ieee_divide_by_zero is signaling
Warning: ieee_underflow is signaling
Warning: ieee_inexact is signaling
FORTRAN STOP
Warning: ieee_invalid is signaling
Warning: ieee_divide_by_zero is signaling
Warning: ieee_underflow is signaling
Warning: ieee_inexact is signaling
FORTRAN STOP
Warning: ieee_invalid is signaling
Warning: ieee_divide_by_zero is signaling
Warning: ieee_underflow is signaling
Warning: ieee_inexact is signaling
FORTRAN STOP
Warning: ieee_invalid is signaling
Warning: ieee_divide_by_zero is signaling
Warning: ieee_underflow is signaling
Warning: ieee_inexact is signaling
FORTRAN STOP
Warning: ieee_invalid is signaling
Warning: ieee_divide_by_zero is signaling
Warning: ieee_underflow is signaling
Warning: ieee_inexact is signaling
FORTRAN STOP
Warning: ieee_invalid is signaling
Warning: ieee_divide_by_zero is signaling
Warning: ieee_underflow is signaling
Warning: ieee_inexact is signaling
FORTRAN STOP
Warning: ieee_invalid is signaling
Warning: ieee_divide_by_zero is signaling
Warning: ieee_underflow is signaling
Warning: ieee_inexact is signaling
FORTRAN STOP
Warning: ieee_invalid is signaling
Warning: ieee_divide_by_zero is signaling
Warning: ieee_underflow is signaling
Warning: ieee_inexact is signaling
FORTRAN STOP
Warning: ieee_invalid is signaling
Warning: ieee_divide_by_zero is signaling
Warning: ieee_underflow is signaling
Warning: ieee_inexact is signaling
FORTRAN STOP
Warning: ieee_invalid is signaling
Warning: ieee_divide_by_zero is signaling
Warning: ieee_underflow is signaling
Warning: ieee_inexact is signaling
FORTRAN STOP
Warning: ieee_invalid is signaling
Warning: ieee_divide_by_zero is signaling
Warning: ieee_underflow is signaling
Warning: ieee_inexact is signaling
FORTRAN STOP
Warning: ieee_invalid is signaling
Warning: ieee_divide_by_zero is signaling
Warning: ieee_underflow is signaling
Warning: ieee_inexact is signaling
FORTRAN STOP
Warning: ieee_invalid is signaling
Warning: ieee_divide_by_zero is signaling
Warning: ieee_underflow is signaling
Warning: ieee_inexact is signaling
FORTRAN STOP
Warning: ieee_invalid is signaling
Warning: ieee_divide_by_zero is signaling
Warning: ieee_underflow is signaling
Warning: ieee_inexact is signaling
FORTRAN STOP
Warning: ieee_invalid is signaling
Warning: ieee_divide_by_zero is signaling
Warning: ieee_underflow is signaling
Warning: ieee_inexact is signaling
FORTRAN STOP
Warning: ieee_invalid is signaling
Warning: ieee_divide_by_zero is signaling
Warning: ieee_underflow is signaling
Warning: ieee_inexact is signaling
FORTRAN STOP
Warning: ieee_invalid is signaling
Warning: ieee_divide_by_zero is signaling
Warning: ieee_underflow is signaling
Warning: ieee_inexact is signaling
FORTRAN STOP
Warning: ieee_invalid is signaling
Warning: ieee_divide_by_zero is signaling
Warning: ieee_underflow is signaling
Warning: ieee_inexact is signaling
FORTRAN STOP
Warning: ieee_invalid is signaling
Warning: ieee_divide_by_zero is signaling
Warning: ieee_underflow is signaling
Warning: ieee_inexact is signaling
FORTRAN STOP
Warning: ieee_invalid is signaling
Warning: ieee_divide_by_zero is signaling
Warning: ieee_underflow is signaling
Warning: ieee_inexact is signaling
FORTRAN STOP
Warning: ieee_invalid is signaling
Warning: ieee_divide_by_zero is signaling
Warning: ieee_underflow is signaling
Warning: ieee_inexact is signaling
FORTRAN STOP
Warning: ieee_invalid is signaling
Warning: ieee_divide_by_zero is signaling
Warning: ieee_underflow is signaling
Warning: ieee_inexact is signaling
FORTRAN STOP
Warning: ieee_invalid is signaling
Warning: ieee_divide_by_zero is signaling
Warning: ieee_underflow is signaling
Warning: ieee_inexact is signaling
FORTRAN STOP
Warning: ieee_invalid is signaling
Warning: ieee_divide_by_zero is signaling
Warning: ieee_underflow is signaling
Warning: ieee_inexact is signaling
FORTRAN STOP
Warning: ieee_invalid is signaling
Warning: ieee_divide_by_zero is signaling
Warning: ieee_underflow is signaling
Warning: ieee_inexact is signaling
FORTRAN STOP
Warning: ieee_invalid is signaling
Warning: ieee_divide_by_zero is signaling
Warning: ieee_underflow is signaling
Warning: ieee_inexact is signaling
FORTRAN STOP
Warning: ieee_invalid is signaling
Warning: ieee_divide_by_zero is signaling
Warning: ieee_underflow is signaling
Warning: ieee_inexact is signaling
FORTRAN STOP
Warning: ieee_invalid is signaling
Warning: ieee_divide_by_zero is signaling
Warning: ieee_underflow is signaling
Warning: ieee_inexact is signaling
FORTRAN STOP
Warning: ieee_invalid is signaling
Warning: ieee_divide_by_zero is signaling
Warning: ieee_underflow is signaling
Warning: ieee_inexact is signaling
FORTRAN STOP
Warning: ieee_invalid is signaling
Warning: ieee_divide_by_zero is signaling
Warning: ieee_underflow is signaling
Warning: ieee_inexact is signaling
FORTRAN STOP
DAV:   4    -0.191708928658E+03   -0.52743E-04   -0.52744E-04  1024   0.360E-02    0.319E+00
DAV:   5    -0.191679172859E+03    0.29756E-01   -0.28767E-01  1280   0.139E+00    0.250E+00
DAV:   6    -0.191670634249E+03    0.85386E-02   -0.46106E-01  1152   0.139E+00    0.206E+00
DAV:   7    -0.191656368866E+03    0.14265E-01   -0.26953E-01  1024   0.121E+00    0.953E-01
DAV:   8    -0.191648423132E+03    0.79457E-02   -0.69473E-02  1024   0.756E-01    0.299E-01
DAV:   9    -0.191647815591E+03    0.60754E-03   -0.92260E-03   768   0.245E-01    0.143E-01
DAV:  10    -0.191647588471E+03    0.22712E-03   -0.19585E-03  1024   0.114E-01    0.970E-02
DAV:  11    -0.191647514037E+03    0.74434E-04   -0.66632E-04   768   0.655E-02    0.389E-02
DAV:  12    -0.191647508251E+03    0.57867E-05   -0.17183E-04  1024   0.359E-02    0.200E-02
DAV:  13    -0.191647504469E+03    0.37819E-05   -0.34700E-05  1024   0.161E-02
   2995 T=   298. E= -.18306981E+03 F= -.19164750E+03 E0= -.19160162E+03  EK= 0.20834E+01 SP= 0.65E+01 SK= 0.12E-01
   2996 T=   305. E= -.18336465E+03 F= -.19195385E+03 E0= -.19195385E+03  EK= 0.21305E+01 SP= 0.64E+01 SK= 0.12E-01
   2997 T=   312. E= -.18336468E+03 F= -.19196727E+03 E0= -.19196727E+03  EK= 0.21793E+01 SP= 0.64E+01 SK= 0.11E-01
   2998 T=   319. E= -.18336473E+03 F= -.19197999E+03 E0= -.19197999E+03  EK= 0.22259E+01 SP= 0.64E+01 SK= 0.93E-02
   2999 T=   325. E= -.18336478E+03 F= -.19199169E+03 E0= -.19199169E+03  EK= 0.22688E+01 SP= 0.64E+01 SK= 0.71E-02
   3000 T=   330. E= -.18336483E+03 F= -.19200212E+03 E0= -.19200212E+03  EK= 0.23061E+01 SP= 0.63E+01 SK= 0.48E-02
 PROFILE, used timers:     446
