   4   4   0   0
  0.1087435E+02  0.3609727E-09  0.3609727E-09  0.3854639E-09  0.5000000E-15
   1.0000000000000000E-004
  CAR 
 unknown system                          
     13.14213456    -46.21363279  301      2.98162759      1.00000000
    -46.214  0.0000E+00  0.0000E+00
    -46.016  0.0000E+00  0.0000E+00
    -45.818  0.0000E+00  0.0000E+00
    -45.620  0.0000E+00  0.0000E+00
    -45.422  0.0000E+00  0.0000E+00
    -45.224  0.0000E+00  0.0000E+00
    -45.027  0.0000E+00  0.0000E+00
    -44.829  0.0000E+00  0.0000E+00
    -44.631  0.0000E+00  0.0000E+00
    -44.433  0.0000E+00  0.0000E+00
    -44.235  0.0000E+00  0.0000E+00
    -44.037  0.8204E-12  0.1623E-12
    -43.839  0.2365E-04  0.4680E-05
    -43.642  0.3789E+00  0.7498E-01
    -43.444  0.8169E+01  0.1691E+01
    -43.246  0.3095E+01  0.2303E+01
    -43.048  0.8186E+01  0.3923E+01
    -42.850  0.3883E+00  0.4000E+01
    -42.652  0.4019E-02  0.4001E+01
    -42.454  0.2911E+01  0.4577E+01
    -42.257  0.7067E+01  0.5975E+01
    -42.059  0.1268E+00  0.6000E+01
    -41.861  0.2378E-05  0.6000E+01
    -41.663  0.2357E-13  0.6000E+01
    -41.465  0.0000E+00  0.6000E+01
    -41.267  0.0000E+00  0.6000E+01
    -41.069  0.0000E+00  0.6000E+01
    -40.872  0.0000E+00  0.6000E+01
    -40.674  0.0000E+00  0.6000E+01
    -40.476  0.0000E+00  0.6000E+01
    -40.278  0.0000E+00  0.6000E+01
    -40.080  0.0000E+00  0.6000E+01
    -39.882  0.0000E+00  0.6000E+01
    -39.684  0.0000E+00  0.6000E+01
    -39.487  0.0000E+00  0.6000E+01
    -39.289  0.0000E+00  0.6000E+01
    -39.091  0.0000E+00  0.6000E+01
    -38.893  0.0000E+00  0.6000E+01
    -38.695  0.0000E+00  0.6000E+01
    -38.497  0.0000E+00  0.6000E+01
    -38.300  0.0000E+00  0.6000E+01
    -38.102  0.0000E+00  0.6000E+01
    -37.904  0.0000E+00  0.6000E+01
    -37.706  0.0000E+00  0.6000E+01
    -37.508  0.0000E+00  0.6000E+01
    -37.310  0.0000E+00  0.6000E+01
    -37.112  0.0000E+00  0.6000E+01
    -36.915  0.0000E+00  0.6000E+01
    -36.717  0.0000E+00  0.6000E+01
    -36.519  0.0000E+00  0.6000E+01
    -36.321  0.0000E+00  0.6000E+01
    -36.123  0.0000E+00  0.6000E+01
    -35.925  0.0000E+00  0.6000E+01
    -35.727  0.0000E+00  0.6000E+01
    -35.530  0.0000E+00  0.6000E+01
    -35.332  0.0000E+00  0.6000E+01
    -35.134  0.0000E+00  0.6000E+01
    -34.936  0.0000E+00  0.6000E+01
    -34.738  0.0000E+00  0.6000E+01
    -34.540  0.0000E+00  0.6000E+01
    -34.342  0.0000E+00  0.6000E+01
    -34.145  0.0000E+00  0.6000E+01
    -33.947  0.0000E+00  0.6000E+01
    -33.749  0.0000E+00  0.6000E+01
    -33.551  0.0000E+00  0.6000E+01
    -33.353  0.0000E+00  0.6000E+01
    -33.155  0.0000E+00  0.6000E+01
    -32.958  0.0000E+00  0.6000E+01
    -32.760  0.0000E+00  0.6000E+01
    -32.562  0.0000E+00  0.6000E+01
    -32.364  0.0000E+00  0.6000E+01
    -32.166  0.0000E+00  0.6000E+01
    -31.968  0.0000E+00  0.6000E+01
    -31.770  0.0000E+00  0.6000E+01
    -31.573  0.0000E+00  0.6000E+01
    -31.375  0.0000E+00  0.6000E+01
    -31.177  0.0000E+00  0.6000E+01
    -30.979  0.0000E+00  0.6000E+01
    -30.781  0.0000E+00  0.6000E+01
    -30.583  0.0000E+00  0.6000E+01
    -30.385  0.0000E+00  0.6000E+01
    -30.188  0.0000E+00  0.6000E+01
    -29.990  0.0000E+00  0.6000E+01
    -29.792  0.0000E+00  0.6000E+01
    -29.594  0.0000E+00  0.6000E+01
    -29.396  0.0000E+00  0.6000E+01
    -29.198  0.0000E+00  0.6000E+01
    -29.000  0.0000E+00  0.6000E+01
    -28.803  0.0000E+00  0.6000E+01
    -28.605  0.0000E+00  0.6000E+01
    -28.407  0.0000E+00  0.6000E+01
    -28.209  0.0000E+00  0.6000E+01
    -28.011  0.0000E+00  0.6000E+01
    -27.813  0.0000E+00  0.6000E+01
    -27.615  0.0000E+00  0.6000E+01
    -27.418  0.0000E+00  0.6000E+01
    -27.220  0.0000E+00  0.6000E+01
    -27.022  0.0000E+00  0.6000E+01
    -26.824  0.0000E+00  0.6000E+01
    -26.626  0.0000E+00  0.6000E+01
    -26.428  0.0000E+00  0.6000E+01
    -26.231  0.0000E+00  0.6000E+01
    -26.033  0.0000E+00  0.6000E+01
    -25.835  0.0000E+00  0.6000E+01
    -25.637  0.0000E+00  0.6000E+01
    -25.439  0.0000E+00  0.6000E+01
    -25.241  0.0000E+00  0.6000E+01
    -25.043  0.0000E+00  0.6000E+01
    -24.846  0.0000E+00  0.6000E+01
    -24.648  0.0000E+00  0.6000E+01
    -24.450  0.0000E+00  0.6000E+01
    -24.252  0.0000E+00  0.6000E+01
    -24.054  0.0000E+00  0.6000E+01
    -23.856  0.0000E+00  0.6000E+01
    -23.658  0.0000E+00  0.6000E+01
    -23.461  0.0000E+00  0.6000E+01
    -23.263  0.0000E+00  0.6000E+01
    -23.065  0.0000E+00  0.6000E+01
    -22.867  0.0000E+00  0.6000E+01
    -22.669  0.0000E+00  0.6000E+01
    -22.471  0.0000E+00  0.6000E+01
    -22.273  0.0000E+00  0.6000E+01
    -22.076  0.0000E+00  0.6000E+01
    -21.878  0.0000E+00  0.6000E+01
    -21.680  0.0000E+00  0.6000E+01
    -21.482  0.0000E+00  0.6000E+01
    -21.284  0.0000E+00  0.6000E+01
    -21.086  0.0000E+00  0.6000E+01
    -20.889  0.0000E+00  0.6000E+01
    -20.691  0.0000E+00  0.6000E+01
    -20.493  0.0000E+00  0.6000E+01
    -20.295  0.0000E+00  0.6000E+01
    -20.097  0.0000E+00  0.6000E+01
    -19.899  0.0000E+00  0.6000E+01
    -19.701  0.0000E+00  0.6000E+01
    -19.504  0.0000E+00  0.6000E+01
    -19.306  0.0000E+00  0.6000E+01
    -19.108  0.0000E+00  0.6000E+01
    -18.910  0.0000E+00  0.6000E+01
    -18.712  0.0000E+00  0.6000E+01
    -18.514  0.0000E+00  0.6000E+01
    -18.316  0.0000E+00  0.6000E+01
    -18.119  0.0000E+00  0.6000E+01
    -17.921  0.0000E+00  0.6000E+01
    -17.723  0.0000E+00  0.6000E+01
    -17.525  0.0000E+00  0.6000E+01
    -17.327  0.0000E+00  0.6000E+01
    -17.129  0.0000E+00  0.6000E+01
    -16.931  0.0000E+00  0.6000E+01
    -16.734  0.0000E+00  0.6000E+01
    -16.536  0.0000E+00  0.6000E+01
    -16.338  0.0000E+00  0.6000E+01
    -16.140  0.0000E+00  0.6000E+01
    -15.942  0.0000E+00  0.6000E+01
    -15.744  0.0000E+00  0.6000E+01
    -15.546  0.0000E+00  0.6000E+01
    -15.349  0.0000E+00  0.6000E+01
    -15.151  0.0000E+00  0.6000E+01
    -14.953  0.0000E+00  0.6000E+01
    -14.755  0.0000E+00  0.6000E+01
    -14.557  0.0000E+00  0.6000E+01
    -14.359  0.0000E+00  0.6000E+01
    -14.162  0.0000E+00  0.6000E+01
    -13.964  0.0000E+00  0.6000E+01
    -13.766  0.0000E+00  0.6000E+01
    -13.568  0.0000E+00  0.6000E+01
    -13.370  0.0000E+00  0.6000E+01
    -13.172  0.0000E+00  0.6000E+01
    -12.974  0.0000E+00  0.6000E+01
    -12.777  0.0000E+00  0.6000E+01
    -12.579  0.0000E+00  0.6000E+01
    -12.381  0.0000E+00  0.6000E+01
    -12.183  0.0000E+00  0.6000E+01
    -11.985  0.0000E+00  0.6000E+01
    -11.787  0.0000E+00  0.6000E+01
    -11.589  0.0000E+00  0.6000E+01
    -11.392  0.0000E+00  0.6000E+01
    -11.194  0.0000E+00  0.6000E+01
    -10.996  0.0000E+00  0.6000E+01
    -10.798  0.0000E+00  0.6000E+01
    -10.600  0.0000E+00  0.6000E+01
    -10.402  0.0000E+00  0.6000E+01
    -10.204  0.0000E+00  0.6000E+01
    -10.007  0.0000E+00  0.6000E+01
     -9.809  0.0000E+00  0.6000E+01
     -9.611  0.0000E+00  0.6000E+01
     -9.413  0.0000E+00  0.6000E+01
     -9.215  0.0000E+00  0.6000E+01
     -9.017  0.8679E-11  0.6000E+01
     -8.819  0.1044E-03  0.6000E+01
     -8.622  0.7297E+00  0.6144E+01
     -8.424  0.8465E+01  0.7819E+01
     -8.226  0.9134E+00  0.8000E+01
     -8.028  0.1782E-03  0.8000E+01
     -7.830  0.2059E-10  0.8000E+01
     -7.632  0.0000E+00  0.8000E+01
     -7.435  0.0000E+00  0.8000E+01
     -7.237  0.0000E+00  0.8000E+01
     -7.039  0.0000E+00  0.8000E+01
     -6.841  0.0000E+00  0.8000E+01
     -6.643  0.0000E+00  0.8000E+01
     -6.445  0.0000E+00  0.8000E+01
     -6.247  0.0000E+00  0.8000E+01
     -6.050  0.0000E+00  0.8000E+01
     -5.852  0.0000E+00  0.8000E+01
     -5.654  0.0000E+00  0.8000E+01
     -5.456  0.0000E+00  0.8000E+01
     -5.258  0.0000E+00  0.8000E+01
     -5.060  0.0000E+00  0.8000E+01
     -4.862  0.0000E+00  0.8000E+01
     -4.665  0.0000E+00  0.8000E+01
     -4.467  0.0000E+00  0.8000E+01
     -4.269  0.0000E+00  0.8000E+01
     -4.071  0.0000E+00  0.8000E+01
     -3.873  0.0000E+00  0.8000E+01
     -3.675  0.0000E+00  0.8000E+01
     -3.477  0.0000E+00  0.8000E+01
     -3.280  0.0000E+00  0.8000E+01
     -3.082  0.0000E+00  0.8000E+01
     -2.884  0.0000E+00  0.8000E+01
     -2.686  0.0000E+00  0.8000E+01
     -2.488  0.0000E+00  0.8000E+01
     -2.290  0.0000E+00  0.8000E+01
     -2.093  0.0000E+00  0.8000E+01
     -1.895  0.0000E+00  0.8000E+01
     -1.697  0.0000E+00  0.8000E+01
     -1.499  0.0000E+00  0.8000E+01
     -1.301  0.0000E+00  0.8000E+01
     -1.103  0.0000E+00  0.8000E+01
     -0.905  0.0000E+00  0.8000E+01
     -0.708  0.0000E+00  0.8000E+01
     -0.510  0.0000E+00  0.8000E+01
     -0.312  0.0000E+00  0.8000E+01
     -0.114  0.0000E+00  0.8000E+01
      0.084  0.0000E+00  0.8000E+01
      0.282  0.4489E-14  0.8000E+01
      0.480  0.8145E-06  0.8000E+01
      0.677  0.7397E-01  0.8015E+01
      0.875  0.6389E+01  0.9279E+01
      1.073  0.3637E+01  0.9998E+01
      1.271  0.8117E-02  0.1000E+02
      1.469  0.1331E-07  0.1000E+02
      1.667  0.0000E+00  0.1000E+02
      1.865  0.0000E+00  0.1000E+02
      2.062  0.6734E-14  0.1000E+02
      2.260  0.1274E-05  0.1000E+02
      2.458  0.1304E+00  0.1003E+02
      2.656  0.1245E+02  0.1249E+02
      2.854  0.7617E+01  0.1400E+02
      3.052  0.1970E-01  0.1400E+02
      3.250  0.1624E+01  0.1432E+02
      3.447  0.8126E+01  0.1593E+02
      3.645  0.3579E+00  0.1600E+02
      3.843  0.2088E-04  0.1600E+02
      4.041  0.6745E-12  0.1600E+02
      4.239  0.0000E+00  0.1600E+02
      4.437  0.0000E+00  0.1600E+02
      4.634  0.0000E+00  0.1600E+02
      4.832  0.0000E+00  0.1600E+02
      5.030  0.0000E+00  0.1600E+02
      5.228  0.0000E+00  0.1600E+02
      5.426  0.0000E+00  0.1600E+02
      5.624  0.0000E+00  0.1600E+02
      5.822  0.0000E+00  0.1600E+02
      6.019  0.0000E+00  0.1600E+02
      6.217  0.0000E+00  0.1600E+02
      6.415  0.0000E+00  0.1600E+02
      6.613  0.0000E+00  0.1600E+02
      6.811  0.0000E+00  0.1600E+02
      7.009  0.0000E+00  0.1600E+02
      7.207  0.0000E+00  0.1600E+02
      7.404  0.0000E+00  0.1600E+02
      7.602  0.0000E+00  0.1600E+02
      7.800  0.0000E+00  0.1600E+02
      7.998  0.0000E+00  0.1600E+02
      8.196  0.0000E+00  0.1600E+02
      8.394  0.0000E+00  0.1600E+02
      8.592  0.0000E+00  0.1600E+02
      8.789  0.0000E+00  0.1600E+02
      8.987  0.4596E-08  0.1600E+02
      9.185  0.5969E-02  0.1600E+02
      9.383  0.5286E+01  0.1705E+02
      9.581  0.1461E+02  0.1994E+02
      9.779  0.3110E+00  0.2000E+02
      9.976  0.7193E-05  0.2000E+02
     10.174  0.6868E-03  0.2000E+02
     10.372  0.1561E+01  0.2031E+02
     10.570  0.8168E+01  0.2193E+02
     10.768  0.3789E+00  0.2200E+02
     10.966  0.2365E-04  0.2200E+02
     11.164  0.8204E-12  0.2200E+02
     11.361  0.0000E+00  0.2200E+02
     11.559  0.0000E+00  0.2200E+02
     11.757  0.0000E+00  0.2200E+02
     11.955  0.0000E+00  0.2200E+02
     12.153  0.0000E+00  0.2200E+02
     12.351  0.0000E+00  0.2200E+02
     12.549  0.0000E+00  0.2200E+02
     12.746  0.0000E+00  0.2200E+02
     12.944  0.0000E+00  0.2200E+02
     13.142  0.0000E+00  0.2200E+02
