    4    4    1    1
  0.1087435E+02  0.3609727E-09  0.3609727E-09  0.3854639E-09  0.5000000E-15
   1.0000000000000000E-004
  CAR 
 unknown system                          
     14      1     11
 
  0.1262379E-14  0.1262379E-14  0.1262379E-14  0.1000000E+01
      1        -43.515643   1.000000
      2        -43.173104   1.000000
      3        -42.414968   1.000000
      4         -8.518438   1.000000
      5          0.850048   1.000000
      6          2.633903   1.000000
      7          2.633936   1.000000
      8          3.319611   0.000001
      9          9.427857   0.000000
     10          9.428231   0.000000
     11         10.444145   0.000000
