 running  128 mpi-ranks, on    1 nodes
 distrk:  each k-point on  128 cores,    1 groups
 distr:  one band on    1 cores,  128 groups
 vasp.6.4.0 14Feb23 (build Mar 16 2023 23:21:51) complex                         
 POSCAR found type information on POSCAR LiN 
 POSCAR found :  2 types and       4 ions
 Reading from existing POTCAR
 scaLAPACK will be used selectively (only on CPU)
 -----------------------------------------------------------------------------
|                                                                             |
|           W    W    AA    RRRRR   N    N  II  N    N   GGGG   !!!           |
|           W    W   A  A   R    R  NN   N  II  NN   N  G    G  !!!           |
|           W    W  A    A  R    R  N N  N  II  N N  N  G       !!!           |
|           W WW W  AAAAAA  RRRRR   N  N N  II  N  N N  G  GGG   !            |
|           WW  WW  A    A  R   R   N   NN  II  N   NN  G    G                |
|           W    W  A    A  R    R  N    N  II  N    N   GGGG   !!!           |
|                                                                             |
|     For optimal performance we recommend to set                             |
|       NCORE = 2 up to number-of-cores-per-socket                            |
|     NCORE specifies how many cores store one orbital (NPAR=cpu/NCORE).      |
|     This setting can greatly improve the performance of VASP for DFT.       |
|     The default, NCORE=1 might be grossly inefficient on modern             |
|     multi-core architectures or massively parallel machines. Do your        |
|     own testing! More info at https://www.vasp.at/wiki/index.php/NCORE      |
|     Unfortunately you need to use the default for GW and RPA                |
|     calculations (for HF NCORE is supported but not extensively tested      |
|     yet).                                                                   |
|                                                                             |
 -----------------------------------------------------------------------------

 Reading from existing POTCAR
 -----------------------------------------------------------------------------
|                                                                             |
|               ----> ADVICE to this user running VASP <----                  |
|                                                                             |
|     You have a (more or less) 'small supercell' and for smaller cells       |
|     it is recommended to use the reciprocal-space projection scheme!        |
|     The real-space optimization is not efficient for small cells and it     |
|     is also less accurate ...                                               |
|     Therefore, set LREAL=.FALSE. in the INCAR file.                         |
|                                                                             |
 -----------------------------------------------------------------------------

 LDA part: xc-table for Pade appr. of Perdew
 POSCAR found type information on POSCAR LiN 
 POSCAR found :  2 types and       4 ions
 Machine learning selected
 Setting communicators for machine learning
 Initializing machine learning
 ML_MB is set to:             1500
 ML_MCONF is set to:          1500
 POSCAR, INCAR and KPOINTS ok, starting setup
 FFT: planning ... GRIDC
 FFT: planning ... GRID_SOFT
 FFT: planning ... GRID
 WAVECAR not read
 entering main loop
       N       E                     dE             d eps       ncg     rms          rms(c)
DAV:   1    -0.181170618973E+02   -0.18117E+02   -0.77370E+03   384   0.969E+01
DAV:   2    -0.186450417746E+02   -0.52798E+00   -0.52798E+00   256   0.353E+00
DAV:   3    -0.186450895818E+02   -0.47807E-04   -0.47807E-04   512   0.297E-02
DAV:   4    -0.186450895818E+02    0.00000E+00   -0.36691E-11   256   0.181E-06
DAV:   5    -0.186450895818E+02    0.15916E-11   -0.17533E-11   512   0.314E-09    0.117E+01
DAV:   6    -0.125163103739E+02    0.61288E+01   -0.36901E+01   256   0.224E+00    0.518E+00
DAV:   7    -0.123066287190E+02    0.20968E+00   -0.15134E-01   512   0.276E-01    0.282E+00
DAV:   8    -0.122904098700E+02    0.16219E-01   -0.31620E-01   256   0.386E-01    0.653E-01
DAV:   9    -0.123047515872E+02   -0.14342E-01   -0.65893E-03   384   0.501E-02    0.850E-02
DAV:  10    -0.123043146575E+02    0.43693E-03   -0.20932E-03   256   0.258E-02    0.288E-02
DAV:  11    -0.123043205055E+02   -0.58480E-05   -0.38482E-05   256   0.370E-03
      1 T=   300. E= -.12187987E+02 F= -.12304321E+02 E0= -.12304320E+02  EK= 0.11633E+00 SP= 0.00E+00 SK= 0.00E+00
 bond charge predicted
       N       E                     dE             d eps       ncg     rms          rms(c)
DAV:   1    -0.123032864228E+02    0.10282E-02   -0.10451E+00   256   0.962E-01    0.152E-01
DAV:   2    -0.123029988708E+02    0.28755E-03   -0.11062E-03   256   0.165E-02    0.591E-02
DAV:   3    -0.123030051893E+02   -0.63186E-05   -0.41903E-05   512   0.415E-03
      2 T=   297. E= -.12187934E+02 F= -.12303005E+02 E0= -.12303004E+02  EK= 0.11507E+00 SP= -.21E-07 SK= 0.30E-12
 bond charge predicted
       N       E                     dE             d eps       ncg     rms          rms(c)
DAV:   1    -0.122994857916E+02    0.35131E-02   -0.10233E+00   256   0.952E-01    0.153E-01
DAV:   2    -0.122991883315E+02    0.29746E-03   -0.11255E-03   256   0.167E-02    0.593E-02
DAV:   3    -0.122991971523E+02   -0.88209E-05   -0.47070E-05   512   0.430E-03
      3 T=   287. E= -.12187855E+02 F= -.12299197E+02 E0= -.12299196E+02  EK= 0.11137E+00 SP= -.31E-04 SK= 0.67E-06
      4 T=   281. E= -.12193146E+02 F= -.12301976E+02 E0= -.12301976E+02  EK= 0.10900E+00 SP= -.18E-03 SK= 0.10E-04
      5 T=   281. E= -.12193145E+02 F= -.12301801E+02 E0= -.12301801E+02  EK= 0.10914E+00 SP= -.52E-03 SK= 0.31E-04
      6 T=   282. E= -.12193144E+02 F= -.12301593E+02 E0= -.12301593E+02  EK= 0.10942E+00 SP= -.10E-02 SK= 0.62E-04
      7 T=   283. E= -.12193143E+02 F= -.12301363E+02 E0= -.12301363E+02  EK= 0.10983E+00 SP= -.17E-02 SK= 0.10E-03
      8 T=   285. E= -.12193142E+02 F= -.12301122E+02 E0= -.12301122E+02  EK= 0.11039E+00 SP= -.26E-02 SK= 0.15E-03
 bond charge predicted
       N       E                     dE             d eps       ncg     rms          rms(c)
DAV:   1    -0.122403365134E+02    0.58852E-01   -0.34993E+01   256   0.556E+00
DAV:   2    -0.122404214549E+02   -0.84942E-04   -0.84942E-04   256   0.413E-02
DAV:   3    -0.122404214558E+02   -0.90699E-09   -0.65903E-09   512   0.112E-04
DAV:   4    -0.122404214553E+02    0.50034E-09    0.18308E-11   256   0.342E-08    0.914E-01
DAV:   5    -0.122287111894E+02    0.11710E-01   -0.42368E-02   384   0.899E-02    0.355E-01
DAV:   6    -0.122288230689E+02   -0.11188E-03   -0.33226E-03   512   0.310E-02    0.175E-01
DAV:   7    -0.122293000330E+02   -0.47696E-03   -0.36526E-04   512   0.136E-02    0.743E-02
DAV:   8    -0.122294469985E+02   -0.14697E-03   -0.98319E-05   512   0.874E-03    0.781E-03
DAV:   9    -0.122294508507E+02   -0.38522E-05   -0.53489E-06   512   0.127E-03
      9 T=   264. E= -.12130389E+02 F= -.12229451E+02 E0= -.12229411E+02  EK= 0.10241E+00 SP= -.35E-02 SK= 0.20E-03
 bond charge predicted
       N       E                     dE             d eps       ncg     rms          rms(c)
DAV:   1    -0.122134580785E+02    0.15989E-01   -0.85854E-01   256   0.869E-01    0.162E-01
DAV:   2    -0.122130666301E+02    0.39145E-03   -0.16499E-03   256   0.182E-02    0.561E-02
DAV:   3    -0.122130535141E+02    0.13116E-04   -0.10620E-04   512   0.540E-03    0.283E-02
DAV:   4    -0.122130592312E+02   -0.57170E-05   -0.10729E-05   256   0.221E-03
     10 T=   225. E= -.12130325E+02 F= -.12213059E+02 E0= -.12212995E+02  EK= 0.87160E-01 SP= -.49E-02 SK= 0.44E-03
     11 T=   210. E= -.12191099E+02 F= -.12266564E+02 E0= -.12266564E+02  EK= 0.81297E-01 SP= -.69E-02 SK= 0.11E-02
 bond charge predicted
       N       E                     dE             d eps       ncg     rms          rms(c)
DAV:   1    -0.121849007008E+02    0.28153E-01   -0.29592E+00   256   0.161E+00
DAV:   2    -0.121849083134E+02   -0.76126E-05   -0.76126E-05   256   0.117E-02
DAV:   3    -0.121849083135E+02   -0.11158E-09   -0.52256E-10   512   0.311E-05
DAV:   4    -0.121849083135E+02    0.34106E-10    0.86100E-12   256   0.969E-09    0.338E-01
DAV:   5    -0.121830234875E+02    0.18848E-02   -0.82385E-03   512   0.363E-02    0.110E-01
DAV:   6    -0.121829371492E+02    0.86338E-04   -0.60321E-04   256   0.117E-02    0.553E-02
DAV:   7    -0.121829529307E+02   -0.15782E-04   -0.60334E-05   512   0.456E-03    0.277E-02
DAV:   8    -0.121829640294E+02   -0.11099E-04   -0.13199E-05   256   0.326E-03    0.243E-03
DAV:   9    -0.121829643745E+02   -0.34506E-06   -0.39458E-07   512   0.386E-04
     12 T=   196. E= -.12114990E+02 F= -.12182964E+02 E0= -.12182818E+02  EK= 0.75857E-01 SP= -.98E-02 SK= 0.19E-02
 bond charge predicted
       N       E                     dE             d eps       ncg     rms          rms(c)
DAV:   1    -0.121715050990E+02    0.11459E-01   -0.64639E-01   256   0.744E-01    0.181E-01
DAV:   2    -0.121709212715E+02    0.58383E-03   -0.26683E-03   512   0.209E-02    0.541E-02
DAV:   3    -0.121708872802E+02    0.33991E-04   -0.19668E-04   256   0.642E-03    0.268E-02
DAV:   4    -0.121708888074E+02   -0.15272E-05   -0.19483E-05   512   0.237E-03
     13 T=   171. E= -.12114912E+02 F= -.12170889E+02 E0= -.12170686E+02  EK= 0.66213E-01 SP= -.14E-01 SK= 0.35E-02
 bond charge predicted
       N       E                     dE             d eps       ncg     rms          rms(c)
DAV:   1    -0.121641732990E+02    0.67140E-02   -0.58201E-01   256   0.697E-01    0.195E-01
DAV:   2    -0.121634583562E+02    0.71494E-03   -0.33588E-03   512   0.227E-02    0.555E-02
DAV:   3    -0.121634131153E+02    0.45241E-04   -0.26349E-04   256   0.716E-03    0.268E-02
DAV:   4    -0.121634130722E+02    0.43015E-07   -0.27008E-05   512   0.259E-03
     14 T=   159. E= -.12114811E+02 F= -.12163413E+02 E0= -.12163156E+02  EK= 0.61610E-01 SP= -.19E-01 SK= 0.58E-02
 bond charge predicted
       N       E                     dE             d eps       ncg     rms          rms(c)
DAV:   1    -0.121624811184E+02    0.93200E-03   -0.56812E-01   256   0.677E-01    0.212E-01
DAV:   2    -0.121616016892E+02    0.87943E-03   -0.42480E-03   512   0.249E-02    0.592E-02
DAV:   3    -0.121615399582E+02    0.61731E-04   -0.35738E-04   384   0.810E-03    0.279E-02
DAV:   4    -0.121615372246E+02    0.27336E-05   -0.38872E-05   512   0.294E-03
     15 T=   163. E= -.12114682E+02 F= -.12161537E+02 E0= -.12161240E+02  EK= 0.63264E-01 SP= -.25E-01 SK= 0.88E-02
 bond charge predicted
       N       E                     dE             d eps       ncg     rms          rms(c)
DAV:   1    -0.121673444218E+02   -0.58045E-02   -0.61598E-01   256   0.699E-01    0.232E-01
DAV:   2    -0.121662607383E+02    0.10837E-02   -0.53931E-03   512   0.277E-02    0.657E-02
DAV:   3    -0.121661762870E+02    0.84451E-04   -0.48738E-04   384   0.926E-03    0.304E-02
DAV:   4    -0.121661700179E+02    0.62692E-05   -0.57381E-05   384   0.352E-03
     16 T=   187. E= -.12114519E+02 F= -.12166170E+02 E0= -.12165858E+02  EK= 0.72489E-01 SP= -.33E-01 SK= 0.12E-01
 bond charge predicted
       N       E                     dE             d eps       ncg     rms          rms(c)
DAV:   1    -0.121795763726E+02   -0.13400E-01   -0.73803E-01   256   0.769E-01    0.256E-01
DAV:   2    -0.121782406877E+02    0.13357E-02   -0.68720E-03   384   0.310E-02    0.749E-02
DAV:   3    -0.121781261979E+02    0.11449E-03   -0.66585E-04   256   0.107E-02    0.346E-02
DAV:   4    -0.121781160043E+02    0.10194E-04   -0.85614E-05   512   0.436E-03    0.163E-02
DAV:   5    -0.121781187341E+02   -0.27298E-05   -0.55640E-06   384   0.175E-03
     17 T=   234. E= -.12114357E+02 F= -.12178119E+02 E0= -.12177822E+02  EK= 0.90654E-01 SP= -.42E-01 SK= 0.15E-01
 bond charge predicted
       N       E                     dE             d eps       ncg     rms          rms(c)
DAV:   1    -0.121998293419E+02   -0.21713E-01   -0.94716E-01   256   0.881E-01    0.282E-01
DAV:   2    -0.121981896695E+02    0.16397E-02   -0.87821E-03   384   0.347E-02    0.864E-02
DAV:   3    -0.121980356502E+02    0.15402E-03   -0.90699E-04   256   0.123E-02    0.402E-02
DAV:   4    -0.121980208984E+02    0.14752E-04   -0.12698E-04   512   0.541E-03    0.177E-02
DAV:   5    -0.121980247385E+02   -0.38401E-05   -0.66869E-06   384   0.192E-03
     18 T=   307. E= -.12114226E+02 F= -.12198025E+02 E0= -.12197776E+02  EK= 0.11903E+00 SP= -.51E-01 SK= 0.16E-01
 bond charge predicted
       N       E                     dE             d eps       ncg     rms          rms(c)
DAV:   1    -0.122285507309E+02   -0.30530E-01   -0.12522E+00   256   0.102E+00    0.310E-01
DAV:   2    -0.122265628709E+02    0.19879E-02   -0.11161E-02   256   0.387E-02    0.100E-01
DAV:   3    -0.122263601105E+02    0.20276E-03   -0.12286E-03   512   0.142E-02    0.473E-02
DAV:   4    -0.122263408907E+02    0.19220E-04   -0.18582E-04   384   0.670E-03    0.194E-02
DAV:   5    -0.122263467033E+02   -0.58126E-05   -0.82402E-06   384   0.215E-03
     19 T=   408. E= -.12114176E+02 F= -.12226347E+02 E0= -.12226166E+02  EK= 0.15837E+00 SP= -.60E-01 SK= 0.14E-01
 bond charge predicted
       N       E                     dE             d eps       ncg     rms          rms(c)
DAV:   1    -0.122658630904E+02   -0.39522E-01   -0.16561E+00   256   0.119E+00    0.337E-01
DAV:   2    -0.122635007122E+02    0.23624E-02   -0.14020E-02   256   0.429E-02    0.116E-01
DAV:   3    -0.122632391488E+02    0.26156E-03   -0.16350E-03   512   0.161E-02    0.556E-02
DAV:   4    -0.122632158443E+02    0.23305E-04   -0.26651E-04   384   0.829E-03    0.211E-02
DAV:   5    -0.122632243365E+02   -0.84923E-05   -0.10139E-05   256   0.240E-03
     20 T=   536. E= -.12114316E+02 F= -.12263224E+02 E0= -.12263113E+02  EK= 0.20800E+00 SP= -.69E-01 SK= 0.96E-02
     21 T=   684. E= -.12108643E+02 F= -.12302524E+02 E0= -.12302524E+02  EK= 0.26506E+00 SP= -.75E-01 SK= 0.35E-02
     22 T=   834. E= -.12109255E+02 F= -.12355638E+02 E0= -.12355638E+02  EK= 0.32329E+00 SP= -.77E-01 SK= 0.28E-06
     23 T=   963. E= -.12109909E+02 F= -.12415071E+02 E0= -.12415071E+02  EK= 0.37338E+00 SP= -.74E-01 SK= 0.58E-02
     24 T=  1045. E= -.12110225E+02 F= -.12478416E+02 E0= -.12478416E+02  EK= 0.40507E+00 SP= -.65E-01 SK= 0.28E-01
     25 T=  1061. E= -.12109911E+02 F= -.12542733E+02 E0= -.12542733E+02  EK= 0.41136E+00 SP= -.48E-01 SK= 0.70E-01
     26 T=  1010. E= -.12109033E+02 F= -.12605066E+02 E0= -.12605066E+02  EK= 0.39175E+00 SP= -.25E-01 SK= 0.13E+00
     27 T=   909. E= -.12107989E+02 F= -.12663033E+02 E0= -.12663033E+02  EK= 0.35234E+00 SP= 0.56E-02 SK= 0.20E+00
     28 T=   780. E= -.12107188E+02 F= -.12715196E+02 E0= -.12715196E+02  EK= 0.30261E+00 SP= 0.42E-01 SK= 0.26E+00
     29 T=   649. E= -.12106805E+02 F= -.12761092E+02 E0= -.12761092E+02  EK= 0.25149E+00 SP= 0.83E-01 SK= 0.32E+00
 bond charge predicted
       N       E                     dE             d eps       ncg     rms          rms(c)
DAV:   1    -0.129622932414E+02   -0.69908E+00   -0.26750E+02   256   0.153E+01
DAV:   2    -0.129631196334E+02   -0.82639E-03   -0.82639E-03   256   0.135E-01
DAV:   3    -0.129631196420E+02   -0.85955E-08   -0.85958E-08   512   0.393E-04
DAV:   4    -0.129631196420E+02   -0.56843E-13    0.18247E-11   256   0.241E-08    0.304E+00
DAV:   5    -0.127527183807E+02    0.21040E+00   -0.11090E+00   384   0.375E-01    0.137E+00
DAV:   6    -0.127169516925E+02    0.35767E-01   -0.21489E-01   384   0.186E-01    0.750E-01
DAV:   7    -0.127134419150E+02    0.35098E-02   -0.57127E-02   256   0.128E-01    0.206E-01
DAV:   8    -0.127148674190E+02   -0.14255E-02   -0.16242E-03   256   0.328E-02    0.299E-02
DAV:   9    -0.127149032581E+02   -0.35839E-04   -0.21601E-05   384   0.305E-03    0.164E-02
DAV:  10    -0.127149290903E+02   -0.25832E-04   -0.49322E-05   384   0.382E-03    0.357E-03
DAV:  11    -0.127149300224E+02   -0.93204E-06   -0.12655E-06   384   0.554E-04
     30 T=   509. E= -.12028317E+02 F= -.12714930E+02 E0= -.12714930E+02  EK= 0.19739E+00 SP= 0.13E+00 SK= 0.36E+00
     31 T=   394. E= -.11992738E+02 F= -.12702875E+02 E0= -.12702875E+02  EK= 0.15286E+00 SP= 0.17E+00 SK= 0.38E+00
     32 T=   323. E= -.11993273E+02 F= -.12731285E+02 E0= -.12731285E+02  EK= 0.12516E+00 SP= 0.22E+00 SK= 0.39E+00
     33 T=   278. E= -.11993688E+02 F= -.12761196E+02 E0= -.12761196E+02  EK= 0.10776E+00 SP= 0.27E+00 SK= 0.39E+00
     34 T=   251. E= -.11993976E+02 F= -.12792497E+02 E0= -.12792497E+02  EK= 0.97492E-01 SP= 0.32E+00 SK= 0.39E+00
     35 T=   237. E= -.11994165E+02 F= -.12825037E+02 E0= -.12825037E+02  EK= 0.92000E-01 SP= 0.36E+00 SK= 0.38E+00
     36 T=   231. E= -.11994284E+02 F= -.12858716E+02 E0= -.12858716E+02  EK= 0.89666E-01 SP= 0.41E+00 SK= 0.37E+00
     37 T=   231. E= -.11994357E+02 F= -.12893524E+02 E0= -.12893524E+02  EK= 0.89460E-01 SP= 0.45E+00 SK= 0.36E+00
     38 T=   234. E= -.11994402E+02 F= -.12929546E+02 E0= -.12929546E+02  EK= 0.90765E-01 SP= 0.50E+00 SK= 0.35E+00
     39 T=   240. E= -.11994430E+02 F= -.12966964E+02 E0= -.12966964E+02  EK= 0.93236E-01 SP= 0.54E+00 SK= 0.34E+00
     40 T=   249. E= -.11994449E+02 F= -.13006039E+02 E0= -.13006039E+02  EK= 0.96703E-01 SP= 0.59E+00 SK= 0.33E+00
     41 T=   261. E= -.11994463E+02 F= -.13047102E+02 E0= -.13047102E+02  EK= 0.10110E+00 SP= 0.63E+00 SK= 0.32E+00
     42 T=   274. E= -.11994476E+02 F= -.13090538E+02 E0= -.13090538E+02  EK= 0.10640E+00 SP= 0.67E+00 SK= 0.32E+00
     43 T=   290. E= -.11994488E+02 F= -.13136771E+02 E0= -.13136771E+02  EK= 0.11261E+00 SP= 0.72E+00 SK= 0.31E+00
     44 T=   309. E= -.11994501E+02 F= -.13186245E+02 E0= -.13186245E+02  EK= 0.11971E+00 SP= 0.76E+00 SK= 0.31E+00
     45 T=   329. E= -.11994514E+02 F= -.13239400E+02 E0= -.13239400E+02  EK= 0.12764E+00 SP= 0.80E+00 SK= 0.32E+00
     46 T=   351. E= -.11994527E+02 F= -.13296644E+02 E0= -.13296644E+02  EK= 0.13630E+00 SP= 0.84E+00 SK= 0.32E+00
 bond charge predicted
       N       E                     dE             d eps       ncg     rms          rms(c)
DAV:   1    -0.132715907138E+02   -0.55666E+00   -0.25233E+02   256   0.139E+01
DAV:   2    -0.132721370088E+02   -0.54629E-03   -0.54629E-03   256   0.105E-01
DAV:   3    -0.132721370156E+02   -0.68640E-08   -0.68648E-08   512   0.312E-04
DAV:   4    -0.132721370156E+02   -0.56843E-13   -0.14375E-11   256   0.247E-08    0.183E+00
DAV:   5    -0.132400642934E+02    0.32073E-01   -0.41335E-01   256   0.206E-01    0.107E+00
DAV:   6    -0.132300987078E+02    0.99656E-02   -0.73783E-02   384   0.890E-02    0.620E-01
DAV:   7    -0.132369271072E+02   -0.68284E-02   -0.14333E-02   384   0.900E-02    0.957E-02
DAV:   8    -0.132370066307E+02   -0.79524E-04   -0.68094E-04   384   0.188E-02    0.270E-02
DAV:   9    -0.132370121566E+02   -0.55259E-05   -0.71500E-05   384   0.345E-03
     47 T=   345. E= -.11884890E+02 F= -.13237012E+02 E0= -.13237012E+02  EK= 0.13382E+00 SP= 0.89E+00 SK= 0.33E+00
     48 T=   345. E= -.12019251E+02 F= -.13419158E+02 E0= -.13419158E+02  EK= 0.13370E+00 SP= 0.93E+00 SK= 0.34E+00
     49 T=   378. E= -.12019241E+02 F= -.13485389E+02 E0= -.13485389E+02  EK= 0.14661E+00 SP= 0.97E+00 SK= 0.35E+00
     50 T=   410. E= -.12019224E+02 F= -.13556943E+02 E0= -.13556943E+02  EK= 0.15900E+00 SP= 0.10E+01 SK= 0.36E+00
     51 T=   439. E= -.12019194E+02 F= -.13633514E+02 E0= -.13633514E+02  EK= 0.17030E+00 SP= 0.11E+01 SK= 0.38E+00
     52 T=   464. E= -.12019145E+02 F= -.13714513E+02 E0= -.13714513E+02  EK= 0.17985E+00 SP= 0.11E+01 SK= 0.40E+00
     53 T=   482. E= -.12019070E+02 F= -.13799059E+02 E0= -.13799059E+02  EK= 0.18703E+00 SP= 0.12E+01 SK= 0.43E+00
     54 T=   493. E= -.12018968E+02 F= -.13885996E+02 E0= -.13885996E+02  EK= 0.19132E+00 SP= 0.12E+01 SK= 0.46E+00
     55 T=   496. E= -.12018842E+02 F= -.13973966E+02 E0= -.13973966E+02  EK= 0.19242E+00 SP= 0.13E+01 SK= 0.50E+00
     56 T=   491. E= -.12018700E+02 F= -.14061509E+02 E0= -.14061509E+02  EK= 0.19025E+00 SP= 0.13E+01 SK= 0.53E+00
 bond charge predicted
       N       E                     dE             d eps       ncg     rms          rms(c)
DAV:   1    -0.135757132879E+02   -0.33871E+00   -0.15927E+02   256   0.111E+01
DAV:   2    -0.135760233135E+02   -0.31003E-03   -0.31003E-03   256   0.771E-02
DAV:   3    -0.135760233167E+02   -0.32297E-08   -0.32281E-08   512   0.224E-04
DAV:   4    -0.135760233168E+02   -0.28422E-11   -0.15949E-11   256   0.175E-08    0.135E+00
DAV:   5    -0.135690318672E+02    0.69914E-02   -0.78841E-03   384   0.797E-02    0.728E-01
DAV:   6    -0.135742013194E+02   -0.51695E-02   -0.10953E-02   384   0.785E-02    0.145E-01
DAV:   7    -0.135741294993E+02    0.71820E-04   -0.19516E-03   384   0.132E-02    0.716E-02
DAV:   8    -0.135742938262E+02   -0.16433E-03   -0.27638E-04   384   0.107E-02    0.186E-02
DAV:   9    -0.135743084093E+02   -0.14583E-04   -0.17426E-05   384   0.224E-03    0.869E-03
DAV:  10    -0.135743153254E+02   -0.69161E-05   -0.12793E-05   384   0.190E-03
     57 T=   414. E= -.11470161E+02 F= -.13574315E+02 E0= -.13574315E+02  EK= 0.16055E+00 SP= 0.14E+01 SK= 0.57E+00
     58 T=   352. E= -.12071603E+02 F= -.14218320E+02 E0= -.14218320E+02  EK= 0.13658E+00 SP= 0.14E+01 SK= 0.58E+00
     59 T=   357. E= -.12071459E+02 F= -.14288739E+02 E0= -.14288739E+02  EK= 0.13841E+00 SP= 0.15E+01 SK= 0.59E+00
     60 T=   355. E= -.12071319E+02 F= -.14357253E+02 E0= -.14357253E+02  EK= 0.13749E+00 SP= 0.15E+01 SK= 0.60E+00
     61 T=   346. E= -.12071192E+02 F= -.14422854E+02 E0= -.14422854E+02  EK= 0.13415E+00 SP= 0.16E+01 SK= 0.61E+00
     62 T=   332. E= -.12071084E+02 F= -.14484765E+02 E0= -.14484765E+02  EK= 0.12885E+00 SP= 0.17E+01 SK= 0.62E+00
     63 T=   315. E= -.12071000E+02 F= -.14542448E+02 E0= -.14542448E+02  EK= 0.12210E+00 SP= 0.17E+01 SK= 0.62E+00
     64 T=   295. E= -.12070942E+02 F= -.14595608E+02 E0= -.14595608E+02  EK= 0.11442E+00 SP= 0.18E+01 SK= 0.62E+00
     65 T=   274. E= -.12070908E+02 F= -.14644156E+02 E0= -.14644156E+02  EK= 0.10626E+00 SP= 0.18E+01 SK= 0.62E+00
     66 T=   253. E= -.12070896E+02 F= -.14688171E+02 E0= -.14688171E+02  EK= 0.98022E-01 SP= 0.19E+01 SK= 0.61E+00
 bond charge predicted
       N       E                     dE             d eps       ncg     rms          rms(c)
DAV:   1    -0.137519093268E+02   -0.17760E+00   -0.11688E+02   256   0.955E+00
DAV:   2    -0.137520363463E+02   -0.12702E-03   -0.12702E-03   256   0.517E-02
DAV:   3    -0.137520363476E+02   -0.13078E-08   -0.13565E-08   512   0.150E-04
DAV:   4    -0.137520363476E+02   -0.14325E-10    0.19712E-12   256   0.659E-08    0.131E+00
DAV:   5    -0.137438419840E+02    0.81944E-02   -0.44695E-02   512   0.877E-02    0.626E-01
DAV:   6    -0.137455633928E+02   -0.17214E-02   -0.20264E-02   384   0.580E-02    0.396E-01
DAV:   7    -0.137477538952E+02   -0.21905E-02   -0.54556E-03   384   0.419E-02    0.719E-02
DAV:   8    -0.137480064372E+02   -0.25254E-03   -0.30307E-04   384   0.122E-02    0.184E-02
DAV:   9    -0.137480354896E+02   -0.29052E-04   -0.52469E-05   384   0.283E-03    0.132E-02
DAV:  10    -0.137480420046E+02   -0.65150E-05   -0.22728E-05   384   0.260E-03
     67 T=   202. E= -.11102681E+02 F= -.13748042E+02 E0= -.13748042E+02  EK= 0.78399E-01 SP= 0.20E+01 SK= 0.60E+00
     68 T=   164. E= -.12096176E+02 F= -.14758716E+02 E0= -.14758716E+02  EK= 0.63467E-01 SP= 0.20E+01 SK= 0.58E+00
     69 T=   159. E= -.12096144E+02 F= -.14787531E+02 E0= -.14787531E+02  EK= 0.61677E-01 SP= 0.21E+01 SK= 0.55E+00
     70 T=   153. E= -.12096120E+02 F= -.14814227E+02 E0= -.14814227E+02  EK= 0.59458E-01 SP= 0.21E+01 SK= 0.52E+00
     71 T=   147. E= -.12096105E+02 F= -.14838794E+02 E0= -.14838794E+02  EK= 0.56948E-01 SP= 0.22E+01 SK= 0.50E+00
     72 T=   140. E= -.12096096E+02 F= -.14861267E+02 E0= -.14861267E+02  EK= 0.54258E-01 SP= 0.22E+01 SK= 0.47E+00
     73 T=   133. E= -.12096093E+02 F= -.14881710E+02 E0= -.14881710E+02  EK= 0.51477E-01 SP= 0.23E+01 SK= 0.44E+00
     74 T=   126. E= -.12096092E+02 F= -.14900211E+02 E0= -.14900211E+02  EK= 0.48672E-01 SP= 0.23E+01 SK= 0.41E+00
     75 T=   118. E= -.12096095E+02 F= -.14916872E+02 E0= -.14916872E+02  EK= 0.45894E-01 SP= 0.24E+01 SK= 0.38E+00
     76 T=   111. E= -.12096099E+02 F= -.14931801E+02 E0= -.14931801E+02  EK= 0.43181E-01 SP= 0.24E+01 SK= 0.36E+00
 bond charge predicted
       N       E                     dE             d eps       ncg     rms          rms(c)
DAV:   1    -0.138080200259E+02   -0.59985E-01   -0.52909E+01   256   0.639E+00
DAV:   2    -0.138080611960E+02   -0.41170E-04   -0.41170E-04   256   0.305E-02
DAV:   3    -0.138080611967E+02   -0.64028E-09   -0.46344E-09   512   0.927E-05
DAV:   4    -0.138080611967E+02   -0.57980E-11   -0.16831E-12   256   0.190E-08    0.906E-01
DAV:   5    -0.138032956302E+02    0.47656E-02   -0.31583E-02   512   0.679E-02    0.410E-01
DAV:   6    -0.138038239001E+02   -0.52827E-03   -0.99888E-03   384   0.370E-02    0.266E-01
DAV:   7    -0.138052750265E+02   -0.14511E-02   -0.20580E-03   512   0.271E-02    0.535E-02
DAV:   8    -0.138054112638E+02   -0.13624E-03   -0.13618E-04   384   0.894E-03    0.110E-02
DAV:   9    -0.138054215691E+02   -0.10305E-04   -0.18145E-05   384   0.156E-03    0.907E-03
DAV:  10    -0.138054253647E+02   -0.37956E-05   -0.11838E-05   384   0.187E-03
     77 T=    93. E= -.10960780E+02 F= -.13805425E+02 E0= -.13805425E+02  EK= 0.36193E-01 SP= 0.25E+01 SK= 0.33E+00
     78 T=    79. E= -.12105334E+02 F= -.14955619E+02 E0= -.14955619E+02  EK= 0.30568E-01 SP= 0.25E+01 SK= 0.30E+00
     79 T=    77. E= -.12105331E+02 F= -.14965178E+02 E0= -.14965178E+02  EK= 0.29710E-01 SP= 0.26E+01 SK= 0.27E+00
     80 T=    74. E= -.12105329E+02 F= -.14973810E+02 E0= -.14973810E+02  EK= 0.28773E-01 SP= 0.26E+01 SK= 0.24E+00
     81 T=    72. E= -.12105328E+02 F= -.14981543E+02 E0= -.14981543E+02  EK= 0.27779E-01 SP= 0.26E+01 SK= 0.21E+00
     82 T=    69. E= -.12105328E+02 F= -.14988413E+02 E0= -.14988413E+02  EK= 0.26747E-01 SP= 0.27E+01 SK= 0.19E+00
     83 T=    66. E= -.12105328E+02 F= -.14994459E+02 E0= -.14994459E+02  EK= 0.25692E-01 SP= 0.27E+01 SK= 0.16E+00
     84 T=    64. E= -.12105329E+02 F= -.14999726E+02 E0= -.14999726E+02  EK= 0.24629E-01 SP= 0.27E+01 SK= 0.14E+00
     85 T=    61. E= -.12105330E+02 F= -.15004258E+02 E0= -.15004258E+02  EK= 0.23567E-01 SP= 0.28E+01 SK= 0.12E+00
     86 T=    58. E= -.12105332E+02 F= -.15008103E+02 E0= -.15008103E+02  EK= 0.22517E-01 SP= 0.28E+01 SK= 0.97E-01
 bond charge predicted
       N       E                     dE             d eps       ncg     rms          rms(c)
DAV:   1    -0.138171521087E+02   -0.11731E-01   -0.26700E+01   256   0.449E+00
DAV:   2    -0.138171699023E+02   -0.17794E-04   -0.17793E-04   256   0.198E-02
DAV:   3    -0.138171699020E+02    0.27103E-09   -0.17241E-09   512   0.574E-05
DAV:   4    -0.138171699021E+02   -0.11391E-09   -0.92026E-12   256   0.196E-08    0.668E-01
DAV:   5    -0.138142095987E+02    0.29603E-02   -0.18677E-02   512   0.518E-02    0.294E-01
DAV:   6    -0.138144523828E+02   -0.24278E-03   -0.47725E-03   384   0.255E-02    0.186E-01
DAV:   7    -0.138153324665E+02   -0.88008E-03   -0.88568E-04   512   0.186E-02    0.401E-02
DAV:   8    -0.138154124487E+02   -0.79982E-04   -0.60302E-05   384   0.647E-03    0.706E-03
DAV:   9    -0.138154164968E+02   -0.40481E-05   -0.72818E-06   384   0.106E-03
     87 T=    52. E= -.10910813E+02 F= -.13815416E+02 E0= -.13815416E+02  EK= 0.20115E-01 SP= 0.28E+01 SK= 0.79E-01
     88 T=    44. E= -.10922617E+02 F= -.13827396E+02 E0= -.13827396E+02  EK= 0.17124E-01 SP= 0.28E+01 SK= 0.62E-01
     89 T=    39. E= -.10922637E+02 F= -.13827702E+02 E0= -.13827702E+02  EK= 0.15003E-01 SP= 0.28E+01 SK= 0.46E-01
     90 T=    35. E= -.10922652E+02 F= -.13828017E+02 E0= -.13828017E+02  EK= 0.13473E-01 SP= 0.29E+01 SK= 0.33E-01
     91 T=    32. E= -.10922662E+02 F= -.13828369E+02 E0= -.13828369E+02  EK= 0.12428E-01 SP= 0.29E+01 SK= 0.22E-01
     92 T=    30. E= -.10922668E+02 F= -.13828776E+02 E0= -.13828776E+02  EK= 0.11796E-01 SP= 0.29E+01 SK= 0.13E-01
     93 T=    30. E= -.10922672E+02 F= -.13829249E+02 E0= -.13829249E+02  EK= 0.11529E-01 SP= 0.29E+01 SK= 0.65E-02
     94 T=    30. E= -.10922673E+02 F= -.13829796E+02 E0= -.13829796E+02  EK= 0.11599E-01 SP= 0.29E+01 SK= 0.22E-02
     95 T=    31. E= -.10922672E+02 F= -.13830420E+02 E0= -.13830420E+02  EK= 0.12000E-01 SP= 0.29E+01 SK= 0.15E-03
     96 T=    33. E= -.10922668E+02 F= -.13831121E+02 E0= -.13831121E+02  EK= 0.12741E-01 SP= 0.29E+01 SK= 0.46E-03
     97 T=    36. E= -.10922662E+02 F= -.13831896E+02 E0= -.13831896E+02  EK= 0.13852E-01 SP= 0.29E+01 SK= 0.30E-02
     98 T=    40. E= -.10922652E+02 F= -.13832738E+02 E0= -.13832738E+02  EK= 0.15383E-01 SP= 0.29E+01 SK= 0.78E-02
     99 T=    45. E= -.10922639E+02 F= -.13833640E+02 E0= -.13833640E+02  EK= 0.17407E-01 SP= 0.29E+01 SK= 0.15E-01
    100 T=    52. E= -.10922620E+02 F= -.13834586E+02 E0= -.13834586E+02  EK= 0.20028E-01 SP= 0.29E+01 SK= 0.23E-01
    101 T=    60. E= -.10922595E+02 F= -.13835561E+02 E0= -.13835561E+02  EK= 0.23387E-01 SP= 0.29E+01 SK= 0.34E-01
    102 T=    71. E= -.10922561E+02 F= -.13836542E+02 E0= -.13836542E+02  EK= 0.27674E-01 SP= 0.28E+01 SK= 0.45E-01
    103 T=    85. E= -.10922515E+02 F= -.13837502E+02 E0= -.13837502E+02  EK= 0.33140E-01 SP= 0.28E+01 SK= 0.58E-01
    104 T=   103. E= -.10922455E+02 F= -.13838404E+02 E0= -.13838404E+02  EK= 0.40112E-01 SP= 0.28E+01 SK= 0.71E-01
    105 T=   126. E= -.10922377E+02 F= -.13839204E+02 E0= -.13839204E+02  EK= 0.49012E-01 SP= 0.28E+01 SK= 0.85E-01
    106 T=   156. E= -.10922279E+02 F= -.13839846E+02 E0= -.13839846E+02  EK= 0.60368E-01 SP= 0.28E+01 SK= 0.97E-01
    107 T=   193. E= -.10922159E+02 F= -.13840262E+02 E0= -.13840262E+02  EK= 0.74814E-01 SP= 0.27E+01 SK= 0.11E+00
    108 T=   240. E= -.10922023E+02 F= -.13840368E+02 E0= -.13840368E+02  EK= 0.93066E-01 SP= 0.27E+01 SK= 0.11E+00
    109 T=   299. E= -.10921884E+02 F= -.13840060E+02 E0= -.13840060E+02  EK= 0.11583E+00 SP= 0.27E+01 SK= 0.12E+00
    110 T=   370. E= -.10921770E+02 F= -.13839215E+02 E0= -.13839215E+02  EK= 0.14363E+00 SP= 0.27E+01 SK= 0.11E+00
    111 T=   455. E= -.10921730E+02 F= -.13837683E+02 E0= -.13837683E+02  EK= 0.17649E+00 SP= 0.26E+01 SK= 0.11E+00
    112 T=   550. E= -.10921821E+02 F= -.13835281E+02 E0= -.13835281E+02  EK= 0.21346E+00 SP= 0.26E+01 SK= 0.89E-01
    113 T=   650. E= -.10922089E+02 F= -.13831783E+02 E0= -.13831783E+02  EK= 0.25216E+00 SP= 0.26E+01 SK= 0.68E-01
    114 T=   744. E= -.10922521E+02 F= -.13826907E+02 E0= -.13826907E+02  EK= 0.28850E+00 SP= 0.26E+01 SK= 0.44E-01
    115 T=   818. E= -.10923012E+02 F= -.13820308E+02 E0= -.13820308E+02  EK= 0.31706E+00 SP= 0.26E+01 SK= 0.22E-01
    116 T=   857. E= -.10923380E+02 F= -.13811623E+02 E0= -.13811623E+02  EK= 0.33235E+00 SP= 0.25E+01 SK= 0.63E-02
    117 T=   853. E= -.10923464E+02 F= -.13800558E+02 E0= -.13800558E+02  EK= 0.33067E+00 SP= 0.25E+01 SK= 0.56E-04
    118 T=   804. E= -.10923232E+02 F= -.13787032E+02 E0= -.13787032E+02  EK= 0.31175E+00 SP= 0.25E+01 SK= 0.37E-02
    119 T=   719. E= -.10922808E+02 F= -.13771317E+02 E0= -.13771317E+02  EK= 0.27892E+00 SP= 0.26E+01 SK= 0.14E-01
    120 T=   613. E= -.10922382E+02 F= -.13754089E+02 E0= -.13754089E+02  EK= 0.23782E+00 SP= 0.26E+01 SK= 0.28E-01
    121 T=   502. E= -.10922085E+02 F= -.13736315E+02 E0= -.13736315E+02  EK= 0.19450E+00 SP= 0.26E+01 SK= 0.40E-01
    122 T=   397. E= -.10921955E+02 F= -.13719096E+02 E0= -.13719096E+02  EK= 0.15378E+00 SP= 0.26E+01 SK= 0.48E-01
    123 T=   306. E= -.10921962E+02 F= -.13703480E+02 E0= -.13703480E+02  EK= 0.11864E+00 SP= 0.26E+01 SK= 0.50E-01
    124 T=   233. E= -.10922047E+02 F= -.13690326E+02 E0= -.13690326E+02  EK= 0.90418E-01 SP= 0.26E+01 SK= 0.48E-01
    125 T=   179. E= -.10922164E+02 F= -.13680239E+02 E0= -.13680239E+02  EK= 0.69226E-01 SP= 0.26E+01 SK= 0.43E-01
    126 T=   141. E= -.10922279E+02 F= -.13673552E+02 E0= -.13673552E+02  EK= 0.54521E-01 SP= 0.27E+01 SK= 0.36E-01
    127 T=   117. E= -.10922378E+02 F= -.13670346E+02 E0= -.13670346E+02  EK= 0.45473E-01 SP= 0.27E+01 SK= 0.28E-01
    128 T=   106. E= -.10922456E+02 F= -.13670488E+02 E0= -.13670488E+02  EK= 0.41191E-01 SP= 0.27E+01 SK= 0.21E-01
    129 T=   105. E= -.10922514E+02 F= -.13673669E+02 E0= -.13673669E+02  EK= 0.40832E-01 SP= 0.27E+01 SK= 0.14E-01
    130 T=   113. E= -.10922556E+02 F= -.13679448E+02 E0= -.13679448E+02  EK= 0.43640E-01 SP= 0.27E+01 SK= 0.91E-02
    131 T=   126. E= -.10922585E+02 F= -.13687291E+02 E0= -.13687291E+02  EK= 0.48939E-01 SP= 0.27E+01 SK= 0.52E-02
    132 T=   145. E= -.10922606E+02 F= -.13696606E+02 E0= -.13696606E+02  EK= 0.56117E-01 SP= 0.27E+01 SK= 0.27E-02
    133 T=   167. E= -.10922623E+02 F= -.13706779E+02 E0= -.13706779E+02  EK= 0.64606E-01 SP= 0.27E+01 SK= 0.11E-02
    134 T=   190. E= -.10922638E+02 F= -.13717203E+02 E0= -.13717203E+02  EK= 0.73857E-01 SP= 0.27E+01 SK= 0.32E-03
    135 T=   215. E= -.10922652E+02 F= -.13727310E+02 E0= -.13727310E+02  EK= 0.83340E-01 SP= 0.27E+01 SK= 0.33E-04
    136 T=   239. E= -.10922665E+02 F= -.13736590E+02 E0= -.13736590E+02  EK= 0.92537E-01 SP= 0.27E+01 SK= 0.11E-04
    137 T=   260. E= -.10922678E+02 F= -.13744615E+02 E0= -.13744615E+02  EK= 0.10096E+00 SP= 0.27E+01 SK= 0.92E-04
    138 T=   279. E= -.10922689E+02 F= -.13751056E+02 E0= -.13751056E+02  EK= 0.10817E+00 SP= 0.27E+01 SK= 0.18E-03
    139 T=   294. E= -.10922695E+02 F= -.13755695E+02 E0= -.13755695E+02  EK= 0.11383E+00 SP= 0.27E+01 SK= 0.22E-03
    140 T=   303. E= -.10922696E+02 F= -.13758426E+02 E0= -.13758426E+02  EK= 0.11768E+00 SP= 0.27E+01 SK= 0.22E-03
    141 T=   309. E= -.10922690E+02 F= -.13759262E+02 E0= -.13759262E+02  EK= 0.11964E+00 SP= 0.27E+01 SK= 0.19E-03
    142 T=   309. E= -.10922678E+02 F= -.13758321E+02 E0= -.13758321E+02  EK= 0.11975E+00 SP= 0.27E+01 SK= 0.16E-03
    143 T=   305. E= -.10922659E+02 F= -.13755815E+02 E0= -.13755815E+02  EK= 0.11821E+00 SP= 0.27E+01 SK= 0.13E-03
    144 T=   297. E= -.10922638E+02 F= -.13752030E+02 E0= -.13752030E+02  EK= 0.11532E+00 SP= 0.27E+01 SK= 0.13E-03
    145 T=   288. E= -.10922614E+02 F= -.13747304E+02 E0= -.13747304E+02  EK= 0.11149E+00 SP= 0.27E+01 SK= 0.15E-03
    146 T=   276. E= -.10922592E+02 F= -.13742001E+02 E0= -.13742001E+02  EK= 0.10715E+00 SP= 0.27E+01 SK= 0.21E-03
    147 T=   265. E= -.10922570E+02 F= -.13736489E+02 E0= -.13736489E+02  EK= 0.10277E+00 SP= 0.27E+01 SK= 0.33E-03
    148 T=   255. E= -.10922550E+02 F= -.13731133E+02 E0= -.13731133E+02  EK= 0.98788E-01 SP= 0.27E+01 SK= 0.53E-03
    149 T=   247. E= -.10922531E+02 F= -.13726274E+02 E0= -.13726274E+02  EK= 0.95607E-01 SP= 0.27E+01 SK= 0.86E-03
    150 T=   241. E= -.10922512E+02 F= -.13722224E+02 E0= -.13722224E+02  EK= 0.93599E-01 SP= 0.27E+01 SK= 0.13E-02
    151 T=   240. E= -.10922493E+02 F= -.13719254E+02 E0= -.13719254E+02  EK= 0.93088E-01 SP= 0.27E+01 SK= 0.19E-02
    152 T=   243. E= -.10922474E+02 F= -.13717593E+02 E0= -.13717593E+02  EK= 0.94351E-01 SP= 0.27E+01 SK= 0.26E-02
    153 T=   252. E= -.10922455E+02 F= -.13717424E+02 E0= -.13717424E+02  EK= 0.97617E-01 SP= 0.27E+01 SK= 0.34E-02
    154 T=   266. E= -.10922436E+02 F= -.13718882E+02 E0= -.13718882E+02  EK= 0.10305E+00 SP= 0.27E+01 SK= 0.40E-02
    155 T=   286. E= -.10922421E+02 F= -.13722048E+02 E0= -.13722048E+02  EK= 0.11075E+00 SP= 0.27E+01 SK= 0.44E-02
    156 T=   311. E= -.10922415E+02 F= -.13726942E+02 E0= -.13726942E+02  EK= 0.12067E+00 SP= 0.27E+01 SK= 0.45E-02
    157 T=   342. E= -.10922421E+02 F= -.13733518E+02 E0= -.13733518E+02  EK= 0.13261E+00 SP= 0.27E+01 SK= 0.40E-02
    158 T=   377. E= -.10922445E+02 F= -.13741653E+02 E0= -.13741653E+02  EK= 0.14615E+00 SP= 0.27E+01 SK= 0.31E-02
    159 T=   414. E= -.10922490E+02 F= -.13751142E+02 E0= -.13751142E+02  EK= 0.16060E+00 SP= 0.27E+01 SK= 0.19E-02
    160 T=   451. E= -.10922552E+02 F= -.13761689E+02 E0= -.13761689E+02  EK= 0.17497E+00 SP= 0.27E+01 SK= 0.73E-03
    161 T=   485. E= -.10922624E+02 F= -.13772918E+02 E0= -.13772918E+02  EK= 0.18807E+00 SP= 0.27E+01 SK= 0.32E-04
    162 T=   512. E= -.10922688E+02 F= -.13784390E+02 E0= -.13784390E+02  EK= 0.19858E+00 SP= 0.27E+01 SK= 0.39E-03
    163 T=   529. E= -.10922728E+02 F= -.13795637E+02 E0= -.13795637E+02  EK= 0.20531E+00 SP= 0.27E+01 SK= 0.23E-02
    164 T=   535. E= -.10922730E+02 F= -.13806188E+02 E0= -.13806188E+02  EK= 0.20735E+00 SP= 0.27E+01 SK= 0.60E-02
    165 T=   527. E= -.10922689E+02 F= -.13815614E+02 E0= -.13815614E+02  EK= 0.20433E+00 SP= 0.27E+01 SK= 0.12E-01
    166 T=   507. E= -.10922614E+02 F= -.13823575E+02 E0= -.13823575E+02  EK= 0.19645E+00 SP= 0.27E+01 SK= 0.18E-01
    167 T=   476. E= -.10922520E+02 F= -.13829849E+02 E0= -.13829849E+02  EK= 0.18445E+00 SP= 0.27E+01 SK= 0.25E-01
    168 T=   437. E= -.10922429E+02 F= -.13834341E+02 E0= -.13834341E+02  EK= 0.16942E+00 SP= 0.27E+01 SK= 0.32E-01
    169 T=   393. E= -.10922357E+02 F= -.13837077E+02 E0= -.13837077E+02  EK= 0.15258E+00 SP= 0.27E+01 SK= 0.38E-01
    170 T=   348. E= -.10922311E+02 F= -.13838179E+02 E0= -.13838179E+02  EK= 0.13509E+00 SP= 0.27E+01 SK= 0.41E-01
    171 T=   304. E= -.10922293E+02 F= -.13837840E+02 E0= -.13837840E+02  EK= 0.11789E+00 SP= 0.28E+01 SK= 0.43E-01
    172 T=   262. E= -.10922299E+02 F= -.13836294E+02 E0= -.13836294E+02  EK= 0.10167E+00 SP= 0.28E+01 SK= 0.42E-01
    173 T=   224. E= -.10922321E+02 F= -.13833791E+02 E0= -.13833791E+02  EK= 0.86859E-01 SP= 0.28E+01 SK= 0.39E-01
    174 T=   190. E= -.10922353E+02 F= -.13830575E+02 E0= -.13830575E+02  EK= 0.73654E-01 SP= 0.28E+01 SK= 0.34E-01
    175 T=   160. E= -.10922389E+02 F= -.13826871E+02 E0= -.13826871E+02  EK= 0.62109E-01 SP= 0.28E+01 SK= 0.29E-01
    176 T=   135. E= -.10922425E+02 F= -.13822882E+02 E0= -.13822882E+02  EK= 0.52169E-01 SP= 0.28E+01 SK= 0.22E-01
    177 T=   113. E= -.10922458E+02 F= -.13818780E+02 E0= -.13818780E+02  EK= 0.43722E-01 SP= 0.28E+01 SK= 0.16E-01
    178 T=    94. E= -.10922487E+02 F= -.13814713E+02 E0= -.13814713E+02  EK= 0.36628E-01 SP= 0.28E+01 SK= 0.11E-01
    179 T=    79. E= -.10922511E+02 F= -.13810803E+02 E0= -.13810803E+02  EK= 0.30747E-01 SP= 0.29E+01 SK= 0.57E-02
    180 T=    67. E= -.10922530E+02 F= -.13807149E+02 E0= -.13807149E+02  EK= 0.25947E-01 SP= 0.29E+01 SK= 0.22E-02
    181 T=    57. E= -.10922545E+02 F= -.13803834E+02 E0= -.13803834E+02  EK= 0.22119E-01 SP= 0.29E+01 SK= 0.29E-03
    182 T=    49. E= -.10922555E+02 F= -.13800920E+02 E0= -.13800920E+02  EK= 0.19177E-01 SP= 0.29E+01 SK= 0.20E-03
    183 T=    44. E= -.10922561E+02 F= -.13798457E+02 E0= -.13798457E+02  EK= 0.17062E-01 SP= 0.29E+01 SK= 0.21E-02
    184 T=    41. E= -.10922562E+02 F= -.13796478E+02 E0= -.13796478E+02  EK= 0.15745E-01 SP= 0.29E+01 SK= 0.62E-02
    185 T=    39. E= -.10922559E+02 F= -.13795006E+02 E0= -.13795006E+02  EK= 0.15229E-01 SP= 0.28E+01 SK= 0.12E-01
    186 T=    40. E= -.10922550E+02 F= -.13794045E+02 E0= -.13794045E+02  EK= 0.15551E-01 SP= 0.28E+01 SK= 0.21E-01
    187 T=    43. E= -.10922535E+02 F= -.13793587E+02 E0= -.13793587E+02  EK= 0.16787E-01 SP= 0.28E+01 SK= 0.31E-01
    188 T=    49. E= -.10922513E+02 F= -.13793599E+02 E0= -.13793599E+02  EK= 0.19056E-01 SP= 0.28E+01 SK= 0.44E-01
    189 T=    58. E= -.10922482E+02 F= -.13794024E+02 E0= -.13794024E+02  EK= 0.22527E-01 SP= 0.28E+01 SK= 0.58E-01
    190 T=    71. E= -.10922440E+02 F= -.13794769E+02 E0= -.13794769E+02  EK= 0.27426E-01 SP= 0.28E+01 SK= 0.73E-01
    191 T=    88. E= -.10922386E+02 F= -.13795691E+02 E0= -.13795691E+02  EK= 0.34036E-01 SP= 0.28E+01 SK= 0.89E-01
    192 T=   110. E= -.10922320E+02 F= -.13796588E+02 E0= -.13796588E+02  EK= 0.42697E-01 SP= 0.27E+01 SK= 0.10E+00
    193 T=   139. E= -.10922243E+02 F= -.13797172E+02 E0= -.13797172E+02  EK= 0.53790E-01 SP= 0.27E+01 SK= 0.12E+00
    194 T=   175. E= -.10922161E+02 F= -.13797050E+02 E0= -.13797050E+02  EK= 0.67694E-01 SP= 0.27E+01 SK= 0.13E+00
    195 T=   218. E= -.10922084E+02 F= -.13795697E+02 E0= -.13795697E+02  EK= 0.84710E-01 SP= 0.26E+01 SK= 0.14E+00
    196 T=   271. E= -.10922032E+02 F= -.13792440E+02 E0= -.13792440E+02  EK= 0.10494E+00 SP= 0.26E+01 SK= 0.15E+00
    197 T=   330. E= -.10922031E+02 F= -.13786453E+02 E0= -.13786453E+02  EK= 0.12808E+00 SP= 0.26E+01 SK= 0.15E+00
    198 T=   395. E= -.10922109E+02 F= -.13776792E+02 E0= -.13776792E+02  EK= 0.15324E+00 SP= 0.26E+01 SK= 0.14E+00
    199 T=   461. E= -.10922286E+02 F= -.13762479E+02 E0= -.13762479E+02  EK= 0.17875E+00 SP= 0.25E+01 SK= 0.13E+00
    200 T=   521. E= -.10922554E+02 F= -.13742655E+02 E0= -.13742655E+02  EK= 0.20213E+00 SP= 0.25E+01 SK= 0.11E+00
    201 T=   568. E= -.10922867E+02 F= -.13716793E+02 E0= -.13716793E+02  EK= 0.22044E+00 SP= 0.25E+01 SK= 0.93E-01
    202 T=   595. E= -.10923148E+02 F= -.13684930E+02 E0= -.13684930E+02  EK= 0.23086E+00 SP= 0.25E+01 SK= 0.72E-01
    203 T=   597. E= -.10923321E+02 F= -.13647834E+02 E0= -.13647834E+02  EK= 0.23155E+00 SP= 0.24E+01 SK= 0.53E-01
    204 T=   573. E= -.10923353E+02 F= -.13607025E+02 E0= -.13607025E+02  EK= 0.22235E+00 SP= 0.24E+01 SK= 0.37E-01
    205 T=   528. E= -.10923265E+02 F= -.13564587E+02 E0= -.13564587E+02  EK= 0.20487E+00 SP= 0.24E+01 SK= 0.26E-01
    206 T=   470. E= -.10923119E+02 F= -.13522842E+02 E0= -.13522842E+02  EK= 0.18207E+00 SP= 0.24E+01 SK= 0.18E-01
    207 T=   406. E= -.10922977E+02 F= -.13483949E+02 E0= -.13483949E+02  EK= 0.15735E+00 SP= 0.24E+01 SK= 0.14E-01
    208 T=   345. E= -.10922877E+02 F= -.13449597E+02 E0= -.13449597E+02  EK= 0.13382E+00 SP= 0.24E+01 SK= 0.12E-01
 bond charge predicted
       N       E                     dE             d eps       ncg     rms          rms(c)
DAV:   1    -0.133904766786E+02    0.42494E+00   -0.28546E+02   256   0.168E+01
DAV:   2    -0.133909695816E+02   -0.49290E-03   -0.49290E-03   256   0.104E-01
DAV:   3    -0.133909695876E+02   -0.59380E-08   -0.59396E-08   512   0.312E-04
DAV:   4    -0.133909695876E+02   -0.22737E-12   -0.20996E-12   256   0.136E-08    0.293E+00
DAV:   5    -0.133136310145E+02    0.77339E-01   -0.20476E-01   384   0.239E-01    0.144E+00
DAV:   6    -0.133085774632E+02    0.50536E-02   -0.10140E-01   384   0.187E-01    0.703E-01
DAV:   7    -0.133118430854E+02   -0.32656E-02   -0.31717E-02   384   0.969E-02    0.155E-01
DAV:   8    -0.133134050750E+02   -0.15620E-02   -0.21292E-03   384   0.359E-02    0.517E-02
DAV:   9    -0.133135021938E+02   -0.97119E-04   -0.15146E-04   384   0.662E-03    0.267E-02
DAV:  10    -0.133135508701E+02   -0.48676E-04   -0.96630E-05   384   0.522E-03    0.726E-03
DAV:  11    -0.133135533396E+02   -0.24695E-05   -0.12800E-05   384   0.164E-03
    209 T=   291. E= -.10816495E+02 F= -.13313553E+02 E0= -.13313553E+02  EK= 0.11276E+00 SP= 0.24E+01 SK= 0.11E-01
    210 T=   265. E= -.10923382E+02 F= -.13402796E+02 E0= -.13402796E+02  EK= 0.10263E+00 SP= 0.24E+01 SK= 0.12E-01
    211 T=   249. E= -.10923424E+02 F= -.13389697E+02 E0= -.13389697E+02  EK= 0.96700E-01 SP= 0.24E+01 SK= 0.13E-01
    212 T=   245. E= -.10923460E+02 F= -.13380682E+02 E0= -.13380682E+02  EK= 0.94973E-01 SP= 0.23E+01 SK= 0.15E-01
    213 T=   250. E= -.10923471E+02 F= -.13375013E+02 E0= -.13375013E+02  EK= 0.97050E-01 SP= 0.23E+01 SK= 0.16E-01
    214 T=   265. E= -.10923448E+02 F= -.13372287E+02 E0= -.13372287E+02  EK= 0.10281E+00 SP= 0.23E+01 SK= 0.18E-01
    215 T=   290. E= -.10923387E+02 F= -.13372573E+02 E0= -.13372573E+02  EK= 0.11256E+00 SP= 0.23E+01 SK= 0.18E-01
    216 T=   328. E= -.10923298E+02 F= -.13376424E+02 E0= -.13376424E+02  EK= 0.12702E+00 SP= 0.23E+01 SK= 0.18E-01
    217 T=   379. E= -.10923208E+02 F= -.13384774E+02 E0= -.13384774E+02  EK= 0.14714E+00 SP= 0.23E+01 SK= 0.16E-01
    218 T=   448. E= -.10923163E+02 F= -.13398710E+02 E0= -.13398710E+02  EK= 0.17370E+00 SP= 0.23E+01 SK= 0.13E-01
    219 T=   533. E= -.10923224E+02 F= -.13419170E+02 E0= -.13419170E+02  EK= 0.20668E+00 SP= 0.23E+01 SK= 0.80E-02
    220 T=   630. E= -.10923442E+02 F= -.13446598E+02 E0= -.13446598E+02  EK= 0.24445E+00 SP= 0.23E+01 SK= 0.29E-02
    221 T=   730. E= -.10923808E+02 F= -.13480652E+02 E0= -.13480652E+02  EK= 0.28326E+00 SP= 0.23E+01 SK= 0.29E-04
    222 T=   818. E= -.10924210E+02 F= -.13520061E+02 E0= -.13520061E+02  EK= 0.31731E+00 SP= 0.23E+01 SK= 0.31E-02
    223 T=   877. E= -.10924450E+02 F= -.13562731E+02 E0= -.13562731E+02  EK= 0.34005E+00 SP= 0.23E+01 SK= 0.16E-01
    224 T=   893. E= -.10924347E+02 F= -.13606096E+02 E0= -.13606096E+02  EK= 0.34635E+00 SP= 0.23E+01 SK= 0.41E-01
    225 T=   863. E= -.10923884E+02 F= -.13647647E+02 E0= -.13647647E+02  EK= 0.33463E+00 SP= 0.23E+01 SK= 0.76E-01
    226 T=   793. E= -.10923231E+02 F= -.13685397E+02 E0= -.13685397E+02  EK= 0.30743E+00 SP= 0.23E+01 SK= 0.12E+00
    227 T=   697. E= -.10922624E+02 F= -.13718140E+02 E0= -.13718140E+02  EK= 0.27016E+00 SP= 0.24E+01 SK= 0.16E+00
    228 T=   590. E= -.10922222E+02 F= -.13745444E+02 E0= -.13745444E+02  EK= 0.22890E+00 SP= 0.24E+01 SK= 0.20E+00
    229 T=   486. E= -.10922059E+02 F= -.13767482E+02 E0= -.13767482E+02  EK= 0.18863E+00 SP= 0.24E+01 SK= 0.23E+00
    230 T=   393. E= -.10922082E+02 F= -.13784800E+02 E0= -.13784800E+02  EK= 0.15245E+00 SP= 0.25E+01 SK= 0.24E+00
    231 T=   314. E= -.10922212E+02 F= -.13798107E+02 E0= -.13798107E+02  EK= 0.12170E+00 SP= 0.25E+01 SK= 0.25E+00
    232 T=   249. E= -.10922384E+02 F= -.13808131E+02 E0= -.13808131E+02  EK= 0.96512E-01 SP= 0.25E+01 SK= 0.25E+00
    233 T=   197. E= -.10922556E+02 F= -.13815539E+02 E0= -.13815539E+02  EK= 0.76373E-01 SP= 0.26E+01 SK= 0.24E+00
    234 T=   156. E= -.10922707E+02 F= -.13820904E+02 E0= -.13820904E+02  EK= 0.60496E-01 SP= 0.26E+01 SK= 0.22E+00
    235 T=   124. E= -.10922831E+02 F= -.13824698E+02 E0= -.13824698E+02  EK= 0.48071E-01 SP= 0.27E+01 SK= 0.20E+00
    236 T=    99. E= -.10922928E+02 F= -.13827298E+02 E0= -.13827298E+02  EK= 0.38375E-01 SP= 0.27E+01 SK= 0.18E+00
    237 T=    79. E= -.10923003E+02 F= -.13829005E+02 E0= -.13829005E+02  EK= 0.30806E-01 SP= 0.27E+01 SK= 0.16E+00
    238 T=    64. E= -.10923060E+02 F= -.13830054E+02 E0= -.13830054E+02  EK= 0.24888E-01 SP= 0.27E+01 SK= 0.14E+00
    239 T=    52. E= -.10923102E+02 F= -.13830628E+02 E0= -.13830628E+02  EK= 0.20249E-01 SP= 0.28E+01 SK= 0.12E+00
    240 T=    43. E= -.10923133E+02 F= -.13830871E+02 E0= -.13830871E+02  EK= 0.16609E-01 SP= 0.28E+01 SK= 0.95E-01
    241 T=    35. E= -.10923156E+02 F= -.13830895E+02 E0= -.13830895E+02  EK= 0.13754E-01 SP= 0.28E+01 SK= 0.75E-01
    242 T=    30. E= -.10923173E+02 F= -.13830788E+02 E0= -.13830788E+02  EK= 0.11524E-01 SP= 0.28E+01 SK= 0.58E-01
    243 T=    25. E= -.10923186E+02 F= -.13830619E+02 E0= -.13830619E+02  EK= 0.97997E-02 SP= 0.29E+01 SK= 0.43E-01
    244 T=    22. E= -.10923195E+02 F= -.13830441E+02 E0= -.13830441E+02  EK= 0.84949E-02 SP= 0.29E+01 SK= 0.29E-01
    245 T=    19. E= -.10923201E+02 F= -.13830298E+02 E0= -.13830298E+02  EK= 0.75463E-02 SP= 0.29E+01 SK= 0.19E-01
    246 T=    18. E= -.10923205E+02 F= -.13830220E+02 E0= -.13830220E+02  EK= 0.69109E-02 SP= 0.29E+01 SK= 0.10E-01
    247 T=    17. E= -.10923207E+02 F= -.13830234E+02 E0= -.13830234E+02  EK= 0.65615E-02 SP= 0.29E+01 SK= 0.42E-02
    248 T=    17. E= -.10923208E+02 F= -.13830357E+02 E0= -.13830357E+02  EK= 0.64853E-02 SP= 0.29E+01 SK= 0.85E-03
    249 T=    17. E= -.10923206E+02 F= -.13830601E+02 E0= -.13830601E+02  EK= 0.66823E-02 SP= 0.29E+01 SK= 0.43E-04
    250 T=    18. E= -.10923204E+02 F= -.13830972E+02 E0= -.13830972E+02  EK= 0.71654E-02 SP= 0.29E+01 SK= 0.18E-02
    251 T=    21. E= -.10923199E+02 F= -.13831469E+02 E0= -.13831469E+02  EK= 0.79609E-02 SP= 0.29E+01 SK= 0.60E-02
    252 T=    23. E= -.10923191E+02 F= -.13832086E+02 E0= -.13832086E+02  EK= 0.91102E-02 SP= 0.29E+01 SK= 0.13E-01
    253 T=    28. E= -.10923181E+02 F= -.13832805E+02 E0= -.13832805E+02  EK= 0.10673E-01 SP= 0.29E+01 SK= 0.22E-01
    254 T=    33. E= -.10923167E+02 F= -.13833603E+02 E0= -.13833603E+02  EK= 0.12729E-01 SP= 0.29E+01 SK= 0.33E-01
    255 T=    40. E= -.10923147E+02 F= -.13834441E+02 E0= -.13834441E+02  EK= 0.15386E-01 SP= 0.28E+01 SK= 0.46E-01
    256 T=    48. E= -.10923122E+02 F= -.13835264E+02 E0= -.13835264E+02  EK= 0.18785E-01 SP= 0.28E+01 SK= 0.61E-01
    257 T=    60. E= -.10923088E+02 F= -.13835996E+02 E0= -.13835996E+02  EK= 0.23105E-01 SP= 0.28E+01 SK= 0.78E-01
    258 T=    74. E= -.10923044E+02 F= -.13836534E+02 E0= -.13836534E+02  EK= 0.28577E-01 SP= 0.28E+01 SK= 0.95E-01
    259 T=    92. E= -.10922987E+02 F= -.13836740E+02 E0= -.13836740E+02  EK= 0.35492E-01 SP= 0.28E+01 SK= 0.11E+00
    260 T=   114. E= -.10922915E+02 F= -.13836431E+02 E0= -.13836431E+02  EK= 0.44203E-01 SP= 0.27E+01 SK= 0.13E+00
    261 T=   142. E= -.10922827E+02 F= -.13835366E+02 E0= -.13835366E+02  EK= 0.55133E-01 SP= 0.27E+01 SK= 0.15E+00
    262 T=   177. E= -.10922725E+02 F= -.13833236E+02 E0= -.13833236E+02  EK= 0.68758E-01 SP= 0.27E+01 SK= 0.16E+00
    263 T=   221. E= -.10922614E+02 F= -.13829653E+02 E0= -.13829653E+02  EK= 0.85565E-01 SP= 0.27E+01 SK= 0.17E+00
    264 T=   273. E= -.10922508E+02 F= -.13824137E+02 E0= -.13824137E+02  EK= 0.10597E+00 SP= 0.26E+01 SK= 0.18E+00
    265 T=   336. E= -.10922430E+02 F= -.13816124E+02 E0= -.13816124E+02  EK= 0.13015E+00 SP= 0.26E+01 SK= 0.18E+00
    266 T=   407. E= -.10922417E+02 F= -.13804980E+02 E0= -.13804980E+02  EK= 0.15786E+00 SP= 0.26E+01 SK= 0.17E+00
    267 T=   485. E= -.10922505E+02 F= -.13790054E+02 E0= -.13790054E+02  EK= 0.18807E+00 SP= 0.25E+01 SK= 0.15E+00
    268 T=   564. E= -.10922723E+02 F= -.13770765E+02 E0= -.13770765E+02  EK= 0.21881E+00 SP= 0.25E+01 SK= 0.13E+00
    269 T=   637. E= -.10923060E+02 F= -.13746713E+02 E0= -.13746713E+02  EK= 0.24702E+00 SP= 0.25E+01 SK= 0.11E+00
    270 T=   694. E= -.10923449E+02 F= -.13717836E+02 E0= -.13717836E+02  EK= 0.26897E+00 SP= 0.24E+01 SK= 0.78E-01
    271 T=   725. E= -.10923783E+02 F= -.13684539E+02 E0= -.13684539E+02  EK= 0.28103E+00 SP= 0.24E+01 SK= 0.51E-01
    272 T=   724. E= -.10923961E+02 F= -.13647739E+02 E0= -.13647739E+02  EK= 0.28085E+00 SP= 0.24E+01 SK= 0.29E-01
 bond charge predicted
       N       E                     dE             d eps       ncg     rms          rms(c)
DAV:   1    -0.137715784839E+02   -0.45803E+00   -0.64881E+02   256   0.235E+01
DAV:   2    -0.137741118248E+02   -0.25333E-02   -0.25333E-02   256   0.214E-01
DAV:   3    -0.137741118602E+02   -0.35397E-07   -0.35347E-07   512   0.661E-04
DAV:   4    -0.137741118601E+02    0.14938E-09   -0.35829E-12   256   0.289E-08    0.520E+00
DAV:   5    -0.135553302536E+02    0.21878E+00   -0.87761E-01   384   0.415E-01    0.186E+00
DAV:   6    -0.135612329400E+02   -0.59027E-02   -0.55439E-02   512   0.142E-01    0.862E-01
DAV:   7    -0.135749922188E+02   -0.13759E-01   -0.39980E-02   512   0.117E-01    0.419E-01
DAV:   8    -0.135760084635E+02   -0.10162E-02   -0.74174E-03   512   0.429E-02    0.149E-01
DAV:   9    -0.135765126318E+02   -0.50417E-03   -0.30692E-03   384   0.271E-02    0.651E-02
DAV:  10    -0.135765181915E+02   -0.55597E-05   -0.76694E-04   384   0.949E-03    0.384E-02
DAV:  11    -0.135765155302E+02    0.26614E-05   -0.82291E-05   384   0.427E-03
    273 T=   689. E= -.10892767E+02 F= -.13576516E+02 E0= -.13576282E+02  EK= 0.26707E+00 SP= 0.24E+01 SK= 0.14E-01
    274 T=   627. E= -.10925382E+02 F= -.13569233E+02 E0= -.13569233E+02  EK= 0.24325E+00 SP= 0.24E+01 SK= 0.53E-02
    275 T=   550. E= -.10925154E+02 F= -.13530786E+02 E0= -.13530786E+02  EK= 0.21318E+00 SP= 0.24E+01 SK= 0.13E-02
    276 T=   466. E= -.10924950E+02 F= -.13495112E+02 E0= -.13495112E+02  EK= 0.18063E+00 SP= 0.24E+01 SK= 0.90E-04
    277 T=   385. E= -.10924814E+02 F= -.13463589E+02 E0= -.13463589E+02  EK= 0.14941E+00 SP= 0.24E+01 SK= 0.41E-04
    278 T=   315. E= -.10924748E+02 F= -.13437267E+02 E0= -.13437267E+02  EK= 0.12231E+00 SP= 0.24E+01 SK= 0.16E-03
    279 T=   261. E= -.10924730E+02 F= -.13416877E+02 E0= -.13416877E+02  EK= 0.10109E+00 SP= 0.24E+01 SK= 0.12E-03
    280 T=   223. E= -.10924735E+02 F= -.13402870E+02 E0= -.13402870E+02  EK= 0.86653E-01 SP= 0.24E+01 SK= 0.11E-04
    281 T=   205. E= -.10924743E+02 F= -.13395475E+02 E0= -.13395475E+02  EK= 0.79374E-01 SP= 0.24E+01 SK= 0.62E-04
    282 T=   205. E= -.10924743E+02 F= -.13394743E+02 E0= -.13394743E+02  EK= 0.79359E-01 SP= 0.24E+01 SK= 0.41E-03
 bond charge predicted
       N       E                     dE             d eps       ncg     rms          rms(c)
DAV:   1    -0.133774226589E+02    0.19910E+00   -0.11282E+02   256   0.920E+00
DAV:   2    -0.133775208878E+02   -0.98229E-04   -0.98229E-04   256   0.459E-02
DAV:   3    -0.133775208889E+02   -0.11119E-08   -0.10537E-08   512   0.132E-04
DAV:   4    -0.133775208887E+02    0.22180E-09    0.90269E-12   256   0.167E-08    0.222E+00
DAV:   5    -0.133427637744E+02    0.34757E-01   -0.22079E-01   384   0.181E-01    0.584E-01
DAV:   6    -0.133439581566E+02   -0.11944E-02   -0.60901E-03   384   0.415E-02    0.326E-01
DAV:   7    -0.133465285300E+02   -0.25704E-02   -0.17852E-03   384   0.283E-02    0.162E-01
DAV:   8    -0.133474406038E+02   -0.91207E-03   -0.72996E-04   384   0.230E-02    0.301E-02
DAV:   9    -0.133474665674E+02   -0.25964E-04   -0.69062E-05   256   0.570E-03    0.130E-02
DAV:  10    -0.133474751442E+02   -0.85769E-05   -0.19118E-05   512   0.283E-03
    283 T=   223. E= -.10871914E+02 F= -.13347475E+02 E0= -.13345154E+02  EK= 0.86301E-01 SP= 0.24E+01 SK= 0.99E-03
    284 T=   261. E= -.10924406E+02 F= -.13412825E+02 E0= -.13412825E+02  EK= 0.10129E+00 SP= 0.24E+01 SK= 0.15E-02
    285 T=   316. E= -.10924424E+02 F= -.13431186E+02 E0= -.13431186E+02  EK= 0.12251E+00 SP= 0.24E+01 SK= 0.16E-02
    286 T=   386. E= -.10924496E+02 F= -.13455067E+02 E0= -.13455067E+02  EK= 0.14963E+00 SP= 0.24E+01 SK= 0.12E-02
    287 T=   466. E= -.10924646E+02 F= -.13483588E+02 E0= -.13483588E+02  EK= 0.18084E+00 SP= 0.24E+01 SK= 0.34E-03
    288 T=   550. E= -.10924872E+02 F= -.13515530E+02 E0= -.13515530E+02  EK= 0.21321E+00 SP= 0.24E+01 SK= 0.67E-04
    289 T=   626. E= -.10925128E+02 F= -.13549351E+02 E0= -.13549351E+02  EK= 0.24278E+00 SP= 0.24E+01 SK= 0.20E-02
    290 T=   684. E= -.10925323E+02 F= -.13583267E+02 E0= -.13583267E+02  EK= 0.26514E+00 SP= 0.24E+01 SK= 0.83E-02
    291 T=   713. E= -.10925356E+02 F= -.13615456E+02 E0= -.13615456E+02  EK= 0.27648E+00 SP= 0.24E+01 SK= 0.20E-01
    292 T=   709. E= -.10925182E+02 F= -.13644315E+02 E0= -.13644315E+02  EK= 0.27482E+00 SP= 0.24E+01 SK= 0.38E-01
    293 T=   672. E= -.10924842E+02 F= -.13668711E+02 E0= -.13668711E+02  EK= 0.26066E+00 SP= 0.24E+01 SK= 0.60E-01
    294 T=   610. E= -.10924446E+02 F= -.13688121E+02 E0= -.13688121E+02  EK= 0.23673E+00 SP= 0.24E+01 SK= 0.84E-01
    295 T=   534. E= -.10924108E+02 F= -.13702637E+02 E0= -.13702637E+02  EK= 0.20697E+00 SP= 0.25E+01 SK= 0.11E+00
    296 T=   452. E= -.10923890E+02 F= -.13712814E+02 E0= -.13712814E+02  EK= 0.17535E+00 SP= 0.25E+01 SK= 0.12E+00
    297 T=   374. E= -.10923803E+02 F= -.13719478E+02 E0= -.13719478E+02  EK= 0.14500E+00 SP= 0.25E+01 SK= 0.13E+00
    298 T=   304. E= -.10923815E+02 F= -.13723531E+02 E0= -.13723531E+02  EK= 0.11786E+00 SP= 0.25E+01 SK= 0.14E+00
    299 T=   245. E= -.10923886E+02 F= -.13725825E+02 E0= -.13725825E+02  EK= 0.94871E-01 SP= 0.26E+01 SK= 0.13E+00
    300 T=   196. E= -.10923982E+02 F= -.13727093E+02 E0= -.13727093E+02  EK= 0.76179E-01 SP= 0.26E+01 SK= 0.13E+00
    301 T=   159. E= -.10924080E+02 F= -.13727918E+02 E0= -.13727918E+02  EK= 0.61510E-01 SP= 0.26E+01 SK= 0.11E+00
    302 T=   130. E= -.10924167E+02 F= -.13728740E+02 E0= -.13728740E+02  EK= 0.50380E-01 SP= 0.27E+01 SK= 0.10E+00
    303 T=   109. E= -.10924240E+02 F= -.13729873E+02 E0= -.13729873E+02  EK= 0.42258E-01 SP= 0.27E+01 SK= 0.87E-01
    304 T=    94. E= -.10924296E+02 F= -.13731528E+02 E0= -.13731528E+02  EK= 0.36644E-01 SP= 0.27E+01 SK= 0.73E-01
    305 T=    85. E= -.10924338E+02 F= -.13733835E+02 E0= -.13733835E+02  EK= 0.33111E-01 SP= 0.27E+01 SK= 0.60E-01
    306 T=    81. E= -.10924368E+02 F= -.13736859E+02 E0= -.13736859E+02  EK= 0.31309E-01 SP= 0.27E+01 SK= 0.47E-01
    307 T=    80. E= -.10924388E+02 F= -.13740622E+02 E0= -.13740622E+02  EK= 0.30967E-01 SP= 0.27E+01 SK= 0.36E-01
    308 T=    82. E= -.10924400E+02 F= -.13745105E+02 E0= -.13745105E+02  EK= 0.31878E-01 SP= 0.28E+01 SK= 0.26E-01
    309 T=    87. E= -.10924406E+02 F= -.13750265E+02 E0= -.13750265E+02  EK= 0.33889E-01 SP= 0.28E+01 SK= 0.18E-01
    310 T=    95. E= -.10924407E+02 F= -.13756032E+02 E0= -.13756032E+02  EK= 0.36886E-01 SP= 0.28E+01 SK= 0.12E-01
    311 T=   105. E= -.10924405E+02 F= -.13762320E+02 E0= -.13762320E+02  EK= 0.40787E-01 SP= 0.28E+01 SK= 0.67E-02
    312 T=   117. E= -.10924399E+02 F= -.13769024E+02 E0= -.13769024E+02  EK= 0.45528E-01 SP= 0.28E+01 SK= 0.34E-02
    313 T=   132. E= -.10924392E+02 F= -.13776024E+02 E0= -.13776024E+02  EK= 0.51056E-01 SP= 0.28E+01 SK= 0.13E-02
    314 T=   148. E= -.10924383E+02 F= -.13783188E+02 E0= -.13783188E+02  EK= 0.57316E-01 SP= 0.28E+01 SK= 0.25E-03
    315 T=   166. E= -.10924375E+02 F= -.13790373E+02 E0= -.13790373E+02  EK= 0.64244E-01 SP= 0.28E+01 SK= 0.55E-05
    316 T=   185. E= -.10924367E+02 F= -.13797427E+02 E0= -.13797427E+02  EK= 0.71758E-01 SP= 0.28E+01 SK= 0.33E-03
    317 T=   206. E= -.10924360E+02 F= -.13804196E+02 E0= -.13804196E+02  EK= 0.79752E-01 SP= 0.28E+01 SK= 0.98E-03
    318 T=   227. E= -.10924355E+02 F= -.13810525E+02 E0= -.13810525E+02  EK= 0.88085E-01 SP= 0.28E+01 SK= 0.18E-02
    319 T=   249. E= -.10924354E+02 F= -.13816267E+02 E0= -.13816267E+02  EK= 0.96583E-01 SP= 0.28E+01 SK= 0.25E-02
    320 T=   271. E= -.10924354E+02 F= -.13821290E+02 E0= -.13821290E+02  EK= 0.10503E+00 SP= 0.28E+01 SK= 0.30E-02
    321 T=   292. E= -.10924358E+02 F= -.13825487E+02 E0= -.13825487E+02  EK= 0.11320E+00 SP= 0.28E+01 SK= 0.32E-02
    322 T=   312. E= -.10924363E+02 F= -.13828784E+02 E0= -.13828784E+02  EK= 0.12083E+00 SP= 0.28E+01 SK= 0.32E-02
    323 T=   329. E= -.10924369E+02 F= -.13831140E+02 E0= -.13831140E+02  EK= 0.12767E+00 SP= 0.28E+01 SK= 0.29E-02
    324 T=   344. E= -.10924374E+02 F= -.13832558E+02 E0= -.13832558E+02  EK= 0.13349E+00 SP= 0.28E+01 SK= 0.24E-02
    325 T=   356. E= -.10924377E+02 F= -.13833078E+02 E0= -.13833078E+02  EK= 0.13809E+00 SP= 0.28E+01 SK= 0.18E-02
    326 T=   365. E= -.10924377E+02 F= -.13832780E+02 E0= -.13832780E+02  EK= 0.14135E+00 SP= 0.28E+01 SK= 0.12E-02
    327 T=   369. E= -.10924374E+02 F= -.13831778E+02 E0= -.13831778E+02  EK= 0.14321E+00 SP= 0.28E+01 SK= 0.70E-03
    328 T=   371. E= -.10924367E+02 F= -.13830209E+02 E0= -.13830209E+02  EK= 0.14372E+00 SP= 0.28E+01 SK= 0.31E-03
    329 T=   369. E= -.10924356E+02 F= -.13828227E+02 E0= -.13828227E+02  EK= 0.14298E+00 SP= 0.28E+01 SK= 0.75E-04
    330 T=   364. E= -.10924344E+02 F= -.13825995E+02 E0= -.13825995E+02  EK= 0.14117E+00 SP= 0.28E+01 SK= 0.45E-07
    331 T=   357. E= -.10924332E+02 F= -.13823666E+02 E0= -.13823666E+02  EK= 0.13852E+00 SP= 0.28E+01 SK= 0.56E-04
    332 T=   349. E= -.10924320E+02 F= -.13821386E+02 E0= -.13821386E+02  EK= 0.13528E+00 SP= 0.28E+01 SK= 0.20E-03
    333 T=   340. E= -.10924311E+02 F= -.13819281E+02 E0= -.13819281E+02  EK= 0.13170E+00 SP= 0.28E+01 SK= 0.40E-03
    334 T=   330. E= -.10924305E+02 F= -.13817446E+02 E0= -.13817446E+02  EK= 0.12800E+00 SP= 0.28E+01 SK= 0.59E-03
    335 T=   321. E= -.10924302E+02 F= -.13815947E+02 E0= -.13815947E+02  EK= 0.12437E+00 SP= 0.28E+01 SK= 0.76E-03
    336 T=   312. E= -.10924303E+02 F= -.13814808E+02 E0= -.13814808E+02  EK= 0.12095E+00 SP= 0.28E+01 SK= 0.88E-03
    337 T=   304. E= -.10924308E+02 F= -.13814015E+02 E0= -.13814015E+02  EK= 0.11781E+00 SP= 0.28E+01 SK= 0.94E-03
    338 T=   297. E= -.10924315E+02 F= -.13813518E+02 E0= -.13813518E+02  EK= 0.11498E+00 SP= 0.28E+01 SK= 0.94E-03
    339 T=   290. E= -.10924324E+02 F= -.13813233E+02 E0= -.13813233E+02  EK= 0.11245E+00 SP= 0.28E+01 SK= 0.89E-03
    340 T=   284. E= -.10924334E+02 F= -.13813051E+02 E0= -.13813051E+02  EK= 0.11016E+00 SP= 0.28E+01 SK= 0.79E-03
    341 T=   279. E= -.10924345E+02 F= -.13812845E+02 E0= -.13812845E+02  EK= 0.10803E+00 SP= 0.28E+01 SK= 0.67E-03
    342 T=   273. E= -.10924355E+02 F= -.13812479E+02 E0= -.13812479E+02  EK= 0.10596E+00 SP= 0.28E+01 SK= 0.52E-03
    343 T=   268. E= -.10924365E+02 F= -.13811822E+02 E0= -.13811822E+02  EK= 0.10386E+00 SP= 0.28E+01 SK= 0.36E-03
    344 T=   262. E= -.10924373E+02 F= -.13810753E+02 E0= -.13810753E+02  EK= 0.10165E+00 SP= 0.28E+01 SK= 0.22E-03
    345 T=   256. E= -.10924381E+02 F= -.13809175E+02 E0= -.13809175E+02  EK= 0.99271E-01 SP= 0.28E+01 SK= 0.91E-04
    346 T=   249. E= -.10924386E+02 F= -.13807016E+02 E0= -.13807016E+02  EK= 0.96687E-01 SP= 0.28E+01 SK= 0.13E-04
    347 T=   242. E= -.10924389E+02 F= -.13804243E+02 E0= -.13804243E+02  EK= 0.93897E-01 SP= 0.28E+01 SK= 0.10E-04
    348 T=   234. E= -.10924392E+02 F= -.13800854E+02 E0= -.13800854E+02  EK= 0.90932E-01 SP= 0.28E+01 SK= 0.12E-03
    349 T=   227. E= -.10924393E+02 F= -.13796879E+02 E0= -.13796879E+02  EK= 0.87849E-01 SP= 0.28E+01 SK= 0.39E-03
    350 T=   218. E= -.10924394E+02 F= -.13792373E+02 E0= -.13792373E+02  EK= 0.84725E-01 SP= 0.28E+01 SK= 0.87E-03
    351 T=   211. E= -.10924394E+02 F= -.13787410E+02 E0= -.13787410E+02  EK= 0.81651E-01 SP= 0.28E+01 SK= 0.16E-02
    352 T=   203. E= -.10924394E+02 F= -.13782070E+02 E0= -.13782070E+02  EK= 0.78719E-01 SP= 0.28E+01 SK= 0.27E-02
    353 T=   196. E= -.10924395E+02 F= -.13776429E+02 E0= -.13776429E+02  EK= 0.76018E-01 SP= 0.28E+01 SK= 0.42E-02
    354 T=   190. E= -.10924396E+02 F= -.13770550E+02 E0= -.13770550E+02  EK= 0.73619E-01 SP= 0.28E+01 SK= 0.61E-02
    355 T=   185. E= -.10924399E+02 F= -.13764471E+02 E0= -.13764471E+02  EK= 0.71572E-01 SP= 0.28E+01 SK= 0.85E-02
    356 T=   180. E= -.10924403E+02 F= -.13758202E+02 E0= -.13758202E+02  EK= 0.69899E-01 SP= 0.28E+01 SK= 0.12E-01
    357 T=   177. E= -.10924409E+02 F= -.13751716E+02 E0= -.13751716E+02  EK= 0.68593E-01 SP= 0.27E+01 SK= 0.15E-01
    358 T=   174. E= -.10924416E+02 F= -.13744956E+02 E0= -.13744956E+02  EK= 0.67614E-01 SP= 0.27E+01 SK= 0.19E-01
    359 T=   173. E= -.10924426E+02 F= -.13737834E+02 E0= -.13737834E+02  EK= 0.66895E-01 SP= 0.27E+01 SK= 0.24E-01
    360 T=   171. E= -.10924437E+02 F= -.13730242E+02 E0= -.13730242E+02  EK= 0.66344E-01 SP= 0.27E+01 SK= 0.29E-01
    361 T=   170. E= -.10924449E+02 F= -.13722064E+02 E0= -.13722064E+02  EK= 0.65853E-01 SP= 0.27E+01 SK= 0.35E-01
    362 T=   168. E= -.10924463E+02 F= -.13713190E+02 E0= -.13713190E+02  EK= 0.65310E-01 SP= 0.27E+01 SK= 0.41E-01
    363 T=   167. E= -.10924478E+02 F= -.13703530E+02 E0= -.13703530E+02  EK= 0.64607E-01 SP= 0.27E+01 SK= 0.48E-01
    364 T=   164. E= -.10924493E+02 F= -.13693029E+02 E0= -.13693029E+02  EK= 0.63657E-01 SP= 0.26E+01 SK= 0.56E-01
    365 T=   161. E= -.10924506E+02 F= -.13681687E+02 E0= -.13681687E+02  EK= 0.62410E-01 SP= 0.26E+01 SK= 0.65E-01
    366 T=   157. E= -.10924515E+02 F= -.13669565E+02 E0= -.13669565E+02  EK= 0.60869E-01 SP= 0.26E+01 SK= 0.74E-01
    367 T=   152. E= -.10924520E+02 F= -.13656799E+02 E0= -.13656799E+02  EK= 0.59110E-01 SP= 0.26E+01 SK= 0.84E-01
    368 T=   148. E= -.10924516E+02 F= -.13643595E+02 E0= -.13643595E+02  EK= 0.57294E-01 SP= 0.26E+01 SK= 0.96E-01
    369 T=   144. E= -.10924501E+02 F= -.13630230E+02 E0= -.13630230E+02  EK= 0.55692E-01 SP= 0.25E+01 SK= 0.11E+00
    370 T=   141. E= -.10924467E+02 F= -.13617052E+02 E0= -.13617052E+02  EK= 0.54715E-01 SP= 0.25E+01 SK= 0.12E+00
    371 T=   142. E= -.10924407E+02 F= -.13604464E+02 E0= -.13604464E+02  EK= 0.54961E-01 SP= 0.25E+01 SK= 0.14E+00
    372 T=   148. E= -.10924307E+02 F= -.13592921E+02 E0= -.13592921E+02  EK= 0.57273E-01 SP= 0.25E+01 SK= 0.15E+00
    373 T=   162. E= -.10924153E+02 F= -.13582919E+02 E0= -.13582919E+02  EK= 0.62831E-01 SP= 0.24E+01 SK= 0.17E+00
    374 T=   189. E= -.10923925E+02 F= -.13574969E+02 E0= -.13574969E+02  EK= 0.73254E-01 SP= 0.24E+01 SK= 0.18E+00
    375 T=   234. E= -.10923609E+02 F= -.13569581E+02 E0= -.13569581E+02  EK= 0.90703E-01 SP= 0.24E+01 SK= 0.19E+00
    376 T=   304. E= -.10923211E+02 F= -.13567211E+02 E0= -.13567211E+02  EK= 0.11788E+00 SP= 0.23E+01 SK= 0.19E+00
    377 T=   407. E= -.10922789E+02 F= -.13568193E+02 E0= -.13568193E+02  EK= 0.15777E+00 SP= 0.23E+01 SK= 0.19E+00
    378 T=   549. E= -.10922508E+02 F= -.13572627E+02 E0= -.13572627E+02  EK= 0.21274E+00 SP= 0.23E+01 SK= 0.17E+00
    379 T=   729. E= -.10922653E+02 F= -.13580226E+02 E0= -.13580226E+02  EK= 0.28268E+00 SP= 0.22E+01 SK= 0.14E+00
 bond charge predicted
       N       E                     dE             d eps       ncg     rms          rms(c)
DAV:   1    -0.132344713465E+02    0.11300E+00   -0.13558E+03   256   0.343E+01
DAV:   2    -0.132443916016E+02   -0.99203E-02   -0.99203E-02   256   0.435E-01
DAV:   3    -0.132443917445E+02   -0.14291E-06   -0.14273E-06   512   0.135E-03
DAV:   4    -0.132443917442E+02    0.22442E-09   -0.11856E-12   256   0.337E-08    0.325E+00
DAV:   5    -0.133136319430E+02   -0.69240E-01   -0.87900E-02   512   0.209E-01    0.167E+00
DAV:   6    -0.133988239949E+02   -0.85192E-01   -0.40635E-02   512   0.180E-01    0.553E-01
DAV:   7    -0.134124534604E+02   -0.13629E-01   -0.49649E-03   512   0.661E-02    0.163E-01
DAV:   8    -0.134131341790E+02   -0.68072E-03   -0.68574E-04   512   0.199E-02    0.528E-02
DAV:   9    -0.134132128445E+02   -0.78665E-04   -0.16621E-04   512   0.839E-03    0.197E-02
DAV:  10    -0.134132381636E+02   -0.25319E-04   -0.35822E-05   384   0.381E-03    0.925E-03
DAV:  11    -0.134132419610E+02   -0.37973E-05   -0.11856E-05   384   0.209E-03
    380 T=   905. E= -.10757797E+02 F= -.13413242E+02 E0= -.13411857E+02  EK= 0.35107E+00 SP= 0.22E+01 SK= 0.91E-01
    381 T=  1081. E= -.10945205E+02 F= -.13604076E+02 E0= -.13604076E+02  EK= 0.41903E+00 SP= 0.22E+01 SK= 0.46E-01
    382 T=  1234. E= -.10946737E+02 F= -.13617790E+02 E0= -.13617790E+02  EK= 0.47851E+00 SP= 0.22E+01 SK= 0.11E-01
    383 T=  1298. E= -.10947420E+02 F= -.13629796E+02 E0= -.13629796E+02  EK= 0.50322E+00 SP= 0.22E+01 SK= 0.48E-03
    384 T=  1252. E= -.10946708E+02 F= -.13639196E+02 E0= -.13639196E+02  EK= 0.48531E+00 SP= 0.22E+01 SK= 0.22E-01
    385 T=  1112. E= -.10945109E+02 F= -.13646020E+02 E0= -.13646020E+02  EK= 0.43131E+00 SP= 0.22E+01 SK= 0.69E-01
    386 T=   923. E= -.10943626E+02 F= -.13651066E+02 E0= -.13651066E+02  EK= 0.35782E+00 SP= 0.22E+01 SK= 0.13E+00
    387 T=   728. E= -.10942852E+02 F= -.13655460E+02 E0= -.13655460E+02  EK= 0.28216E+00 SP= 0.23E+01 SK= 0.18E+00
    388 T=   557. E= -.10942766E+02 F= -.13660221E+02 E0= -.13660221E+02  EK= 0.21581E+00 SP= 0.23E+01 SK= 0.21E+00
    389 T=   421. E= -.10943071E+02 F= -.13666039E+02 E0= -.13666039E+02  EK= 0.16339E+00 SP= 0.23E+01 SK= 0.24E+00
 bond charge predicted
       N       E                     dE             d eps       ncg     rms          rms(c)
DAV:   1    -0.135627260712E+02   -0.14949E+00   -0.29114E+02   256   0.152E+01
DAV:   2    -0.135632761234E+02   -0.55005E-03   -0.55005E-03   256   0.108E-01
DAV:   3    -0.135632761318E+02   -0.84614E-08   -0.83674E-08   512   0.364E-04
DAV:   4    -0.135632761318E+02    0.70145E-10    0.65914E-12   256   0.185E-08    0.339E+00
DAV:   5    -0.134843328718E+02    0.78943E-01   -0.82343E-01   512   0.283E-01    0.128E+00
DAV:   6    -0.134685214942E+02    0.15811E-01   -0.18228E-01   384   0.148E-01    0.833E-01
DAV:   7    -0.134759037165E+02   -0.73822E-02   -0.25383E-02   384   0.880E-02    0.218E-01
DAV:   8    -0.134780935660E+02   -0.21898E-02   -0.30858E-03   384   0.368E-02    0.860E-02
DAV:   9    -0.134782339887E+02   -0.14042E-03   -0.18471E-04   384   0.110E-02    0.386E-02
DAV:  10    -0.134782830984E+02   -0.49110E-04   -0.22961E-04   384   0.901E-03    0.219E-02
DAV:  11    -0.134782799539E+02    0.31446E-05   -0.94295E-05   384   0.316E-03
    390 T=   338. E= -.10742144E+02 F= -.13478280E+02 E0= -.13478270E+02  EK= 0.13120E+00 SP= 0.24E+01 SK= 0.24E+00
    391 T=   308. E= -.10696151E+02 F= -.13460407E+02 E0= -.13460407E+02  EK= 0.11926E+00 SP= 0.24E+01 SK= 0.25E+00
    392 T=   296. E= -.10696435E+02 F= -.13494027E+02 E0= -.13494027E+02  EK= 0.11482E+00 SP= 0.24E+01 SK= 0.25E+00
    393 T=   293. E= -.10696574E+02 F= -.13530150E+02 E0= -.13530150E+02  EK= 0.11376E+00 SP= 0.25E+01 SK= 0.25E+00
    394 T=   292. E= -.10696606E+02 F= -.13566514E+02 E0= -.13566514E+02  EK= 0.11324E+00 SP= 0.25E+01 SK= 0.25E+00
    395 T=   288. E= -.10696568E+02 F= -.13601278E+02 E0= -.13601278E+02  EK= 0.11155E+00 SP= 0.25E+01 SK= 0.24E+00
    396 T=   278. E= -.10696491E+02 F= -.13633087E+02 E0= -.13633087E+02  EK= 0.10791E+00 SP= 0.26E+01 SK= 0.24E+00
    397 T=   264. E= -.10696401E+02 F= -.13661082E+02 E0= -.13661082E+02  EK= 0.10219E+00 SP= 0.26E+01 SK= 0.24E+00
    398 T=   244. E= -.10696317E+02 F= -.13684855E+02 E0= -.13684855E+02  EK= 0.94684E-01 SP= 0.27E+01 SK= 0.23E+00
    399 T=   222. E= -.10696251E+02 F= -.13704367E+02 E0= -.13704367E+02  EK= 0.85940E-01 SP= 0.27E+01 SK= 0.23E+00
    400 T=   197. E= -.10696206E+02 F= -.13719853E+02 E0= -.13719853E+02  EK= 0.76548E-01 SP= 0.27E+01 SK= 0.22E+00
    401 T=   173. E= -.10696183E+02 F= -.13731727E+02 E0= -.13731727E+02  EK= 0.67053E-01 SP= 0.28E+01 SK= 0.20E+00
    402 T=   149. E= -.10696177E+02 F= -.13740499E+02 E0= -.13740499E+02  EK= 0.57894E-01 SP= 0.28E+01 SK= 0.19E+00
    403 T=   127. E= -.10696185E+02 F= -.13746715E+02 E0= -.13746715E+02  EK= 0.49382E-01 SP= 0.28E+01 SK= 0.17E+00
    404 T=   108. E= -.10696201E+02 F= -.13750906E+02 E0= -.13750906E+02  EK= 0.41714E-01 SP= 0.29E+01 SK= 0.15E+00
    405 T=    90. E= -.10696222E+02 F= -.13753561E+02 E0= -.13753561E+02  EK= 0.34990E-01 SP= 0.29E+01 SK= 0.13E+00
    406 T=    75. E= -.10696243E+02 F= -.13755112E+02 E0= -.13755112E+02  EK= 0.29241E-01 SP= 0.29E+01 SK= 0.11E+00
    407 T=    63. E= -.10696264E+02 F= -.13755925E+02 E0= -.13755925E+02  EK= 0.24447E-01 SP= 0.29E+01 SK= 0.94E-01
    408 T=    53. E= -.10696283E+02 F= -.13756303E+02 E0= -.13756303E+02  EK= 0.20561E-01 SP= 0.30E+01 SK= 0.76E-01
    409 T=    45. E= -.10696300E+02 F= -.13756484E+02 E0= -.13756484E+02  EK= 0.17520E-01 SP= 0.30E+01 SK= 0.60E-01
    410 T=    39. E= -.10696313E+02 F= -.13756651E+02 E0= -.13756651E+02  EK= 0.15256E-01 SP= 0.30E+01 SK= 0.45E-01
    411 T=    35. E= -.10696324E+02 F= -.13756933E+02 E0= -.13756933E+02  EK= 0.13700E-01 SP= 0.30E+01 SK= 0.32E-01
    412 T=    33. E= -.10696332E+02 F= -.13757415E+02 E0= -.13757415E+02  EK= 0.12788E-01 SP= 0.30E+01 SK= 0.21E-01
    413 T=    32. E= -.10696337E+02 F= -.13758138E+02 E0= -.13758138E+02  EK= 0.12460E-01 SP= 0.30E+01 SK= 0.12E-01
    414 T=    33. E= -.10696341E+02 F= -.13759111E+02 E0= -.13759111E+02  EK= 0.12664E-01 SP= 0.30E+01 SK= 0.60E-02
    415 T=    34. E= -.10696342E+02 F= -.13760310E+02 E0= -.13760310E+02  EK= 0.13352E-01 SP= 0.30E+01 SK= 0.19E-02
    416 T=    37. E= -.10696342E+02 F= -.13761684E+02 E0= -.13761684E+02  EK= 0.14483E-01 SP= 0.31E+01 SK= 0.10E-03
    417 T=    41. E= -.10696341E+02 F= -.13763157E+02 E0= -.13763157E+02  EK= 0.16020E-01 SP= 0.31E+01 SK= 0.52E-03
    418 T=    46. E= -.10696338E+02 F= -.13764635E+02 E0= -.13764635E+02  EK= 0.17929E-01 SP= 0.30E+01 SK= 0.30E-02
    419 T=    52. E= -.10696335E+02 F= -.13766005E+02 E0= -.13766005E+02  EK= 0.20182E-01 SP= 0.30E+01 SK= 0.75E-02
    420 T=    59. E= -.10696331E+02 F= -.13767140E+02 E0= -.13767140E+02  EK= 0.22749E-01 SP= 0.30E+01 SK= 0.14E-01
    421 T=    66. E= -.10696326E+02 F= -.13767905E+02 E0= -.13767905E+02  EK= 0.25607E-01 SP= 0.30E+01 SK= 0.22E-01
    422 T=    74. E= -.10696320E+02 F= -.13768154E+02 E0= -.13768154E+02  EK= 0.28731E-01 SP= 0.30E+01 SK= 0.31E-01
    423 T=    83. E= -.10696314E+02 F= -.13767743E+02 E0= -.13767743E+02  EK= 0.32102E-01 SP= 0.30E+01 SK= 0.42E-01
    424 T=    92. E= -.10696307E+02 F= -.13766525E+02 E0= -.13766525E+02  EK= 0.35708E-01 SP= 0.30E+01 SK= 0.54E-01
    425 T=   102. E= -.10696300E+02 F= -.13764362E+02 E0= -.13764362E+02  EK= 0.39541E-01 SP= 0.30E+01 SK= 0.66E-01
    426 T=   112. E= -.10696291E+02 F= -.13761129E+02 E0= -.13761129E+02  EK= 0.43611E-01 SP= 0.29E+01 SK= 0.79E-01
    427 T=   124. E= -.10696280E+02 F= -.13756716E+02 E0= -.13756716E+02  EK= 0.47945E-01 SP= 0.29E+01 SK= 0.93E-01
 bond charge predicted
       N       E                     dE             d eps       ncg     rms          rms(c)
DAV:   1    -0.137648575818E+02   -0.28657E+00   -0.21920E+02   256   0.135E+01
DAV:   2    -0.137653119132E+02   -0.45433E-03   -0.45433E-03   256   0.100E-01
DAV:   3    -0.137653119206E+02   -0.73689E-08   -0.72116E-08   512   0.350E-04
DAV:   4    -0.137653119204E+02    0.16519E-09   -0.90639E-12   256   0.209E-08    0.143E+00
DAV:   5    -0.137524246841E+02    0.12887E-01   -0.75201E-02   384   0.117E-01    0.764E-01
DAV:   6    -0.137535187713E+02   -0.10941E-02   -0.11135E-02   384   0.439E-02    0.443E-01
DAV:   7    -0.137575969910E+02   -0.40782E-02   -0.36507E-03   384   0.547E-02    0.415E-02
DAV:   8    -0.137576026082E+02   -0.56172E-05   -0.60689E-05   256   0.594E-03
    428 T=   124. E= -.10707481E+02 F= -.13757603E+02 E0= -.13757595E+02  EK= 0.47952E-01 SP= 0.29E+01 SK= 0.11E+00
    429 T=   123. E= -.10704300E+02 F= -.13744103E+02 E0= -.13744103E+02  EK= 0.47790E-01 SP= 0.29E+01 SK= 0.12E+00
    430 T=   132. E= -.10704287E+02 F= -.13735931E+02 E0= -.13735931E+02  EK= 0.51237E-01 SP= 0.28E+01 SK= 0.14E+00
    431 T=   142. E= -.10704267E+02 F= -.13726561E+02 E0= -.13726561E+02  EK= 0.55074E-01 SP= 0.28E+01 SK= 0.15E+00
    432 T=   154. E= -.10704234E+02 F= -.13716074E+02 E0= -.13716074E+02  EK= 0.59572E-01 SP= 0.28E+01 SK= 0.17E+00
    433 T=   168. E= -.10704183E+02 F= -.13704593E+02 E0= -.13704593E+02  EK= 0.65136E-01 SP= 0.28E+01 SK= 0.18E+00
    434 T=   187. E= -.10704107E+02 F= -.13692282E+02 E0= -.13692282E+02  EK= 0.72352E-01 SP= 0.27E+01 SK= 0.20E+00
    435 T=   212. E= -.10703998E+02 F= -.13679332E+02 E0= -.13679332E+02  EK= 0.82034E-01 SP= 0.27E+01 SK= 0.21E+00
    436 T=   246. E= -.10703852E+02 F= -.13665948E+02 E0= -.13665948E+02  EK= 0.95256E-01 SP= 0.26E+01 SK= 0.22E+00
    437 T=   292. E= -.10703670E+02 F= -.13652312E+02 E0= -.13652312E+02  EK= 0.11336E+00 SP= 0.26E+01 SK= 0.22E+00
 bond charge predicted
       N       E                     dE             d eps       ncg     rms          rms(c)
DAV:   1    -0.135203708410E+02    0.23723E+00   -0.58714E+01   256   0.724E+00
DAV:   2    -0.135204983691E+02   -0.12753E-03   -0.12753E-03   256   0.500E-02
DAV:   3    -0.135204983705E+02   -0.13508E-08   -0.14964E-08   512   0.157E-04
DAV:   4    -0.135204983704E+02    0.17963E-10    0.43299E-12   256   0.176E-08    0.158E+00
DAV:   5    -0.134769058854E+02    0.43592E-01   -0.15684E-01   384   0.171E-01    0.659E-01
DAV:   6    -0.134714608111E+02    0.54451E-02   -0.36788E-02   384   0.925E-02    0.329E-01
DAV:   7    -0.134715527421E+02   -0.91931E-04   -0.72613E-03   384   0.437E-02    0.952E-02
DAV:   8    -0.134720340784E+02   -0.48134E-03   -0.35703E-04   384   0.179E-02    0.183E-02
DAV:   9    -0.134720556211E+02   -0.21543E-04   -0.12889E-05   512   0.258E-03    0.117E-02
DAV:  10    -0.134720664795E+02   -0.10858E-04   -0.23489E-05   384   0.287E-03    0.183E-03
DAV:  11    -0.134720668268E+02   -0.34729E-06   -0.49808E-07   512   0.455E-04
    438 T=   309. E= -.10555191E+02 F= -.13472067E+02 E0= -.13472066E+02  EK= 0.11963E+00 SP= 0.26E+01 SK= 0.22E+00
 bond charge predicted
       N       E                     dE             d eps       ncg     rms          rms(c)
DAV:   1    -0.134354643788E+02    0.36602E-01   -0.11259E+00   256   0.100E+00    0.174E-01
DAV:   2    -0.134349208405E+02    0.54354E-03   -0.10785E-03   512   0.197E-02    0.761E-02
DAV:   3    -0.134348811579E+02    0.39683E-04   -0.38237E-04   256   0.113E-02    0.203E-02
DAV:   4    -0.134348895052E+02   -0.83474E-05   -0.12127E-05   512   0.207E-03
    439 T=   307. E= -.10554558E+02 F= -.13434890E+02 E0= -.13434889E+02  EK= 0.11905E+00 SP= 0.25E+01 SK= 0.22E+00
    440 T=   351. E= -.10532951E+02 F= -.13392345E+02 E0= -.13392345E+02  EK= 0.13601E+00 SP= 0.25E+01 SK= 0.22E+00
    441 T=   462. E= -.10532111E+02 F= -.13388945E+02 E0= -.13388945E+02  EK= 0.17926E+00 SP= 0.25E+01 SK= 0.20E+00
    442 T=   660. E= -.10531834E+02 F= -.13404630E+02 E0= -.13404630E+02  EK= 0.25577E+00 SP= 0.24E+01 SK= 0.18E+00
    443 T=   936. E= -.10533030E+02 F= -.13434928E+02 E0= -.13434928E+02  EK= 0.36280E+00 SP= 0.24E+01 SK= 0.13E+00
    444 T=  1238. E= -.10536135E+02 F= -.13469921E+02 E0= -.13469921E+02  EK= 0.48007E+00 SP= 0.24E+01 SK= 0.66E-01
    445 T=  1468. E= -.10539654E+02 F= -.13496721E+02 E0= -.13496721E+02  EK= 0.56928E+00 SP= 0.24E+01 SK= 0.14E-01
    446 T=  1527. E= -.10540624E+02 F= -.13505023E+02 E0= -.13505023E+02  EK= 0.59208E+00 SP= 0.24E+01 SK= 0.16E-02
    447 T=  1386. E= -.10538127E+02 F= -.13492189E+02 E0= -.13492189E+02  EK= 0.53764E+00 SP= 0.24E+01 SK= 0.37E-01
    448 T=  1111. E= -.10534558E+02 F= -.13463487E+02 E0= -.13463487E+02  EK= 0.43070E+00 SP= 0.24E+01 SK= 0.99E-01
    449 T=   801. E= -.10532356E+02 F= -.13427944E+02 E0= -.13427944E+02  EK= 0.31061E+00 SP= 0.24E+01 SK= 0.16E+00
    450 T=   533. E= -.10531891E+02 F= -.13394015E+02 E0= -.13394015E+02  EK= 0.20681E+00 SP= 0.25E+01 SK= 0.20E+00
    451 T=   338. E= -.10532383E+02 F= -.13367571E+02 E0= -.13367571E+02  EK= 0.13124E+00 SP= 0.25E+01 SK= 0.21E+00
    452 T=   216. E= -.10533112E+02 F= -.13351812E+02 E0= -.13351812E+02  EK= 0.83724E-01 SP= 0.25E+01 SK= 0.21E+00
    453 T=   152. E= -.10533741E+02 F= -.13347924E+02 E0= -.13347924E+02  EK= 0.59106E-01 SP= 0.26E+01 SK= 0.19E+00
    454 T=   133. E= -.10534190E+02 F= -.13355753E+02 E0= -.13355753E+02  EK= 0.51459E-01 SP= 0.26E+01 SK= 0.18E+00
    455 T=   144. E= -.10534486E+02 F= -.13374288E+02 E0= -.13374288E+02  EK= 0.55653E-01 SP= 0.26E+01 SK= 0.16E+00
    456 T=   174. E= -.10534673E+02 F= -.13401942E+02 E0= -.13401942E+02  EK= 0.67540E-01 SP= 0.27E+01 SK= 0.15E+00
    457 T=   216. E= -.10534787E+02 F= -.13436732E+02 E0= -.13436732E+02  EK= 0.83707E-01 SP= 0.27E+01 SK= 0.14E+00
    458 T=   261. E= -.10534845E+02 F= -.13476416E+02 E0= -.13476416E+02  EK= 0.10123E+00 SP= 0.27E+01 SK= 0.13E+00
    459 T=   303. E= -.10534851E+02 F= -.13518638E+02 E0= -.13518638E+02  EK= 0.11757E+00 SP= 0.27E+01 SK= 0.13E+00
    460 T=   337. E= -.10534804E+02 F= -.13561100E+02 E0= -.13561100E+02  EK= 0.13064E+00 SP= 0.28E+01 SK= 0.13E+00
    461 T=   358. E= -.10534701E+02 F= -.13601742E+02 E0= -.13601742E+02  EK= 0.13897E+00 SP= 0.28E+01 SK= 0.14E+00
    462 T=   366. E= -.10534554E+02 F= -.13638912E+02 E0= -.13638912E+02  EK= 0.14186E+00 SP= 0.28E+01 SK= 0.14E+00
    463 T=   359. E= -.10534380E+02 F= -.13671468E+02 E0= -.13671468E+02  EK= 0.13937E+00 SP= 0.28E+01 SK= 0.15E+00
    464 T=   341. E= -.10534207E+02 F= -.13698811E+02 E0= -.13698811E+02  EK= 0.13225E+00 SP= 0.29E+01 SK= 0.15E+00
    465 T=   314. E= -.10534057E+02 F= -.13720837E+02 E0= -.13720837E+02  EK= 0.12167E+00 SP= 0.29E+01 SK= 0.16E+00
    466 T=   281. E= -.10533946E+02 F= -.13737840E+02 E0= -.13737840E+02  EK= 0.10896E+00 SP= 0.29E+01 SK= 0.16E+00
    467 T=   246. E= -.10533876E+02 F= -.13750384E+02 E0= -.13750384E+02  EK= 0.95359E-01 SP= 0.30E+01 SK= 0.15E+00
    468 T=   211. E= -.10533845E+02 F= -.13759188E+02 E0= -.13759188E+02  EK= 0.81888E-01 SP= 0.30E+01 SK= 0.15E+00
    469 T=   179. E= -.10533843E+02 F= -.13765018E+02 E0= -.13765018E+02  EK= 0.69278E-01 SP= 0.30E+01 SK= 0.14E+00
    470 T=   150. E= -.10533861E+02 F= -.13768620E+02 E0= -.13768620E+02  EK= 0.57991E-01 SP= 0.31E+01 SK= 0.12E+00
    471 T=   124. E= -.10533890E+02 F= -.13770670E+02 E0= -.13770670E+02  EK= 0.48266E-01 SP= 0.31E+01 SK= 0.11E+00
[...]
Warning: ieee_divide_by_zero is signaling
Warning: ieee_underflow is signaling
Warning: ieee_inexact is signaling
FORTRAN STOP
Warning: ieee_invalid is signaling
Warning: ieee_divide_by_zero is signaling
Warning: ieee_underflow is signaling
Warning: ieee_inexact is signaling
FORTRAN STOP
Warning: ieee_invalid is signaling
Warning: ieee_divide_by_zero is signaling
Warning: ieee_underflow is signaling
Warning: ieee_inexact is signaling
FORTRAN STOP
Warning: ieee_invalid is signaling
Warning: ieee_divide_by_zero is signaling
Warning: ieee_underflow is signaling
Warning: ieee_inexact is signaling
FORTRAN STOP
Warning: ieee_invalid is signaling
Warning: ieee_divide_by_zero is signaling
Warning: ieee_underflow is signaling
Warning: ieee_inexact is signaling
FORTRAN STOP
Warning: ieee_invalid is signaling
Warning: ieee_divide_by_zero is signaling
Warning: ieee_underflow is signaling
Warning: ieee_inexact is signaling
FORTRAN STOP
Warning: ieee_invalid is signaling
Warning: ieee_divide_by_zero is signaling
Warning: ieee_underflow is signaling
Warning: ieee_inexact is signaling
FORTRAN STOP
Warning: ieee_invalid is signaling
Warning: ieee_divide_by_zero is signaling
Warning: ieee_underflow is signaling
Warning: ieee_inexact is signaling
FORTRAN STOP
Warning: ieee_invalid is signaling
Warning: ieee_divide_by_zero is signaling
Warning: ieee_underflow is signaling
Warning: ieee_inexact is signaling
FORTRAN STOP
Warning: ieee_invalid is signaling
Warning: ieee_divide_by_zero is signaling
Warning: ieee_underflow is signaling
Warning: ieee_inexact is signaling
FORTRAN STOP
Warning: ieee_invalid is signaling
Warning: ieee_divide_by_zero is signaling
Warning: ieee_underflow is signaling
Warning: ieee_inexact is signaling
FORTRAN STOP
Warning: ieee_invalid is signaling
Warning: ieee_divide_by_zero is signaling
Warning: ieee_underflow is signaling
Warning: ieee_inexact is signaling
FORTRAN STOP
Warning: ieee_invalid is signaling
Warning: ieee_divide_by_zero is signaling
Warning: ieee_underflow is signaling
Warning: ieee_inexact is signaling
FORTRAN STOP
Warning: ieee_invalid is signaling
Warning: ieee_divide_by_zero is signaling
Warning: ieee_underflow is signaling
Warning: ieee_inexact is signaling
FORTRAN STOP
Warning: ieee_invalid is signaling
Warning: ieee_divide_by_zero is signaling
Warning: ieee_underflow is signaling
Warning: ieee_inexact is signaling
FORTRAN STOP
Warning: ieee_invalid is signaling
Warning: ieee_divide_by_zero is signaling
Warning: ieee_underflow is signaling
Warning: ieee_inexact is signaling
FORTRAN STOP
Warning: ieee_invalid is signaling
Warning: ieee_divide_by_zero is signaling
Warning: ieee_underflow is signaling
Warning: ieee_inexact is signaling
FORTRAN STOP
Warning: ieee_invalid is signaling
Warning: ieee_divide_by_zero is signaling
Warning: ieee_underflow is signaling
Warning: ieee_inexact is signaling
FORTRAN STOP
Warning: ieee_invalid is signaling
Warning: ieee_divide_by_zero is signaling
Warning: ieee_underflow is signaling
Warning: ieee_inexact is signaling
FORTRAN STOP
Warning: ieee_invalid is signaling
Warning: ieee_divide_by_zero is signaling
Warning: ieee_underflow is signaling
Warning: ieee_inexact is signaling
FORTRAN STOP
Warning: ieee_invalid is signaling
Warning: ieee_divide_by_zero is signaling
Warning: ieee_underflow is signaling
Warning: ieee_inexact is signaling
FORTRAN STOP
Warning: ieee_invalid is signaling
Warning: ieee_divide_by_zero is signaling
Warning: ieee_underflow is signaling
Warning: ieee_inexact is signaling
FORTRAN STOP
Warning: ieee_invalid is signaling
Warning: ieee_divide_by_zero is signaling
Warning: ieee_underflow is signaling
Warning: ieee_inexact is signaling
FORTRAN STOP
Warning: ieee_invalid is signaling
Warning: ieee_divide_by_zero is signaling
Warning: ieee_underflow is signaling
Warning: ieee_inexact is signaling
FORTRAN STOP
Warning: ieee_invalid is signaling
Warning: ieee_divide_by_zero is signaling
Warning: ieee_underflow is signaling
Warning: ieee_inexact is signaling
FORTRAN STOP
Warning: ieee_invalid is signaling
Warning: ieee_divide_by_zero is signaling
Warning: ieee_underflow is signaling
Warning: ieee_inexact is signaling
FORTRAN STOP
Warning: ieee_invalid is signaling
Warning: ieee_divide_by_zero is signaling
Warning: ieee_underflow is signaling
Warning: ieee_inexact is signaling
FORTRAN STOP
Warning: ieee_invalid is signaling
Warning: ieee_divide_by_zero is signaling
Warning: ieee_underflow is signaling
Warning: ieee_inexact is signaling
FORTRAN STOP
Warning: ieee_invalid is signaling
Warning: ieee_divide_by_zero is signaling
Warning: ieee_underflow is signaling
Warning: ieee_inexact is signaling
FORTRAN STOP
Warning: ieee_invalid is signaling
Warning: ieee_divide_by_zero is signaling
Warning: ieee_underflow is signaling
Warning: ieee_inexact is signaling
FORTRAN STOP
Warning: ieee_invalid is signaling
Warning: ieee_divide_by_zero is signaling
Warning: ieee_underflow is signaling
Warning: ieee_inexact is signaling
FORTRAN STOP
Warning: ieee_invalid is signaling
Warning: ieee_divide_by_zero is signaling
Warning: ieee_underflow is signaling
Warning: ieee_inexact is signaling
FORTRAN STOP
Warning: ieee_invalid is signaling
Warning: ieee_divide_by_zero is signaling
Warning: ieee_underflow is signaling
Warning: ieee_inexact is signaling
FORTRAN STOP
Warning: ieee_invalid is signaling
Warning: ieee_divide_by_zero is signaling
Warning: ieee_underflow is signaling
Warning: ieee_inexact is signaling
FORTRAN STOP
Warning: ieee_invalid is signaling
Warning: ieee_divide_by_zero is signaling
Warning: ieee_underflow is signaling
Warning: ieee_inexact is signaling
FORTRAN STOP
Warning: ieee_invalid is signaling
Warning: ieee_divide_by_zero is signaling
Warning: ieee_underflow is signaling
Warning: ieee_inexact is signaling
FORTRAN STOP
Warning: ieee_invalid is signaling
Warning: ieee_divide_by_zero is signaling
Warning: ieee_underflow is signaling
Warning: ieee_inexact is signaling
FORTRAN STOP
Warning: ieee_invalid is signaling
Warning: ieee_divide_by_zero is signaling
Warning: ieee_underflow is signaling
Warning: ieee_inexact is signaling
FORTRAN STOP
Warning: ieee_invalid is signaling
Warning: ieee_divide_by_zero is signaling
Warning: ieee_underflow is signaling
Warning: ieee_inexact is signaling
FORTRAN STOP
Warning: ieee_invalid is signaling
Warning: ieee_divide_by_zero is signaling
Warning: ieee_underflow is signaling
Warning: ieee_inexact is signaling
FORTRAN STOP
Warning: ieee_invalid is signaling
Warning: ieee_divide_by_zero is signaling
Warning: ieee_underflow is signaling
Warning: ieee_inexact is signaling
FORTRAN STOP
Warning: ieee_invalid is signaling
Warning: ieee_divide_by_zero is signaling
Warning: ieee_underflow is signaling
Warning: ieee_inexact is signaling
FORTRAN STOP
Warning: ieee_invalid is signaling
Warning: ieee_divide_by_zero is signaling
Warning: ieee_underflow is signaling
Warning: ieee_inexact is signaling
FORTRAN STOP
Warning: ieee_invalid is signaling
Warning: ieee_divide_by_zero is signaling
Warning: ieee_underflow is signaling
Warning: ieee_inexact is signaling
FORTRAN STOP
Warning: ieee_invalid is signaling
Warning: ieee_divide_by_zero is signaling
Warning: ieee_underflow is signaling
Warning: ieee_inexact is signaling
FORTRAN STOP
Warning: ieee_invalid is signaling
Warning: ieee_divide_by_zero is signaling
Warning: ieee_underflow is signaling
Warning: ieee_inexact is signaling
FORTRAN STOP
Warning: ieee_invalid is signaling
Warning: ieee_divide_by_zero is signaling
Warning: ieee_underflow is signaling
Warning: ieee_inexact is signaling
FORTRAN STOP
Warning: ieee_invalid is signaling
Warning: ieee_divide_by_zero is signaling
Warning: ieee_underflow is signaling
Warning: ieee_inexact is signaling
FORTRAN STOP
Warning: ieee_invalid is signaling
Warning: ieee_divide_by_zero is signaling
Warning: ieee_underflow is signaling
Warning: ieee_inexact is signaling
FORTRAN STOP
Warning: ieee_invalid is signaling
Warning: ieee_divide_by_zero is signaling
Warning: ieee_underflow is signaling
Warning: ieee_inexact is signaling
FORTRAN STOP
Warning: ieee_invalid is signaling
Warning: ieee_divide_by_zero is signaling
Warning: ieee_underflow is signaling
Warning: ieee_inexact is signaling
FORTRAN STOP
Warning: ieee_invalid is signaling
Warning: ieee_divide_by_zero is signaling
Warning: ieee_underflow is signaling
Warning: ieee_inexact is signaling
FORTRAN STOP
Warning: ieee_invalid is signaling
Warning: ieee_divide_by_zero is signaling
Warning: ieee_underflow is signaling
Warning: ieee_inexact is signaling
FORTRAN STOP
Warning: ieee_invalid is signaling
Warning: ieee_divide_by_zero is signaling
Warning: ieee_underflow is signaling
Warning: ieee_inexact is signaling
FORTRAN STOP
Warning: ieee_invalid is signaling
Warning: ieee_divide_by_zero is signaling
Warning: ieee_underflow is signaling
Warning: ieee_inexact is signaling
FORTRAN STOP
Warning: ieee_invalid is signaling
Warning: ieee_divide_by_zero is signaling
Warning: ieee_underflow is signaling
Warning: ieee_inexact is signaling
FORTRAN STOP
Warning: ieee_invalid is signaling
Warning: ieee_divide_by_zero is signaling
Warning: ieee_underflow is signaling
Warning: ieee_inexact is signaling
FORTRAN STOP
Warning: ieee_invalid is signaling
Warning: ieee_divide_by_zero is signaling
Warning: ieee_underflow is signaling
Warning: ieee_inexact is signaling
FORTRAN STOP
Warning: ieee_invalid is signaling
Warning: ieee_divide_by_zero is signaling
Warning: ieee_underflow is signaling
Warning: ieee_inexact is signaling
FORTRAN STOP
Warning: ieee_invalid is signaling
Warning: ieee_divide_by_zero is signaling
Warning: ieee_underflow is signaling
Warning: ieee_inexact is signaling
FORTRAN STOP
Warning: ieee_invalid is signaling
Warning: ieee_divide_by_zero is signaling
Warning: ieee_underflow is signaling
Warning: ieee_inexact is signaling
FORTRAN STOP
Warning: ieee_invalid is signaling
Warning: ieee_divide_by_zero is signaling
Warning: ieee_underflow is signaling
Warning: ieee_inexact is signaling
FORTRAN STOP
Warning: ieee_invalid is signaling
Warning: ieee_divide_by_zero is signaling
Warning: ieee_underflow is signaling
Warning: ieee_inexact is signaling
FORTRAN STOP
Warning: ieee_invalid is signaling
Warning: ieee_divide_by_zero is signaling
Warning: ieee_underflow is signaling
Warning: ieee_inexact is signaling
FORTRAN STOP
Warning: ieee_invalid is signaling
Warning: ieee_divide_by_zero is signaling
Warning: ieee_underflow is signaling
Warning: ieee_inexact is signaling
FORTRAN STOP
Warning: ieee_invalid is signaling
Warning: ieee_divide_by_zero is signaling
Warning: ieee_underflow is signaling
Warning: ieee_inexact is signaling
FORTRAN STOP
Warning: ieee_invalid is signaling
Warning: ieee_divide_by_zero is signaling
Warning: ieee_underflow is signaling
Warning: ieee_inexact is signaling
FORTRAN STOP
Warning: ieee_invalid is signaling
Warning: ieee_divide_by_zero is signaling
Warning: ieee_underflow is signaling
Warning: ieee_inexact is signaling
FORTRAN STOP
Warning: ieee_invalid is signaling
Warning: ieee_divide_by_zero is signaling
Warning: ieee_underflow is signaling
Warning: ieee_inexact is signaling
FORTRAN STOP
Warning: ieee_invalid is signaling
Warning: ieee_divide_by_zero is signaling
Warning: ieee_underflow is signaling
Warning: ieee_inexact is signaling
FORTRAN STOP
Warning: ieee_invalid is signaling
Warning: ieee_divide_by_zero is signaling
Warning: ieee_underflow is signaling
Warning: ieee_inexact is signaling
FORTRAN STOP
Warning: ieee_invalid is signaling
Warning: ieee_divide_by_zero is signaling
Warning: ieee_underflow is signaling
Warning: ieee_inexact is signaling
FORTRAN STOP
Warning: ieee_invalid is signaling
Warning: ieee_divide_by_zero is signaling
Warning: ieee_underflow is signaling
Warning: ieee_inexact is signaling
FORTRAN STOP
Warning: ieee_invalid is signaling
Warning: ieee_divide_by_zero is signaling
Warning: ieee_underflow is signaling
Warning: ieee_inexact is signaling
FORTRAN STOP
Warning: ieee_invalid is signaling
Warning: ieee_divide_by_zero is signaling
Warning: ieee_underflow is signaling
Warning: ieee_inexact is signaling
FORTRAN STOP
Warning: ieee_invalid is signaling
Warning: ieee_divide_by_zero is signaling
Warning: ieee_underflow is signaling
Warning: ieee_inexact is signaling
FORTRAN STOP
Warning: ieee_invalid is signaling
Warning: ieee_divide_by_zero is signaling
Warning: ieee_underflow is signaling
Warning: ieee_inexact is signaling
FORTRAN STOP
Warning: ieee_invalid is signaling
Warning: ieee_divide_by_zero is signaling
Warning: ieee_underflow is signaling
Warning: ieee_inexact is signaling
FORTRAN STOP
Warning: ieee_invalid is signaling
Warning: ieee_divide_by_zero is signaling
Warning: ieee_underflow is signaling
Warning: ieee_inexact is signaling
FORTRAN STOP
Warning: ieee_invalid is signaling
Warning: ieee_divide_by_zero is signaling
Warning: ieee_underflow is signaling
Warning: ieee_inexact is signaling
FORTRAN STOP
Warning: ieee_invalid is signaling
Warning: ieee_divide_by_zero is signaling
Warning: ieee_underflow is signaling
Warning: ieee_inexact is signaling
FORTRAN STOP
Warning: ieee_invalid is signaling
Warning: ieee_divide_by_zero is signaling
Warning: ieee_underflow is signaling
Warning: ieee_inexact is signaling
FORTRAN STOP
Warning: ieee_invalid is signaling
Warning: ieee_divide_by_zero is signaling
Warning: ieee_underflow is signaling
Warning: ieee_inexact is signaling
FORTRAN STOP
Warning: ieee_invalid is signaling
Warning: ieee_divide_by_zero is signaling
Warning: ieee_underflow is signaling
Warning: ieee_inexact is signaling
FORTRAN STOP
Warning: ieee_invalid is signaling
Warning: ieee_divide_by_zero is signaling
Warning: ieee_underflow is signaling
Warning: ieee_inexact is signaling
FORTRAN STOP
Warning: ieee_invalid is signaling
Warning: ieee_divide_by_zero is signaling
Warning: ieee_underflow is signaling
Warning: ieee_inexact is signaling
FORTRAN STOP
Warning: ieee_invalid is signaling
Warning: ieee_divide_by_zero is signaling
Warning: ieee_underflow is signaling
Warning: ieee_inexact is signaling
FORTRAN STOP
Warning: ieee_invalid is signaling
Warning: ieee_divide_by_zero is signaling
Warning: ieee_underflow is signaling
Warning: ieee_inexact is signaling
FORTRAN STOP
Warning: ieee_invalid is signaling
Warning: ieee_divide_by_zero is signaling
Warning: ieee_underflow is signaling
Warning: ieee_inexact is signaling
FORTRAN STOP
Warning: ieee_invalid is signaling
Warning: ieee_divide_by_zero is signaling
Warning: ieee_underflow is signaling
Warning: ieee_inexact is signaling
FORTRAN STOP
Warning: ieee_invalid is signaling
Warning: ieee_divide_by_zero is signaling
Warning: ieee_underflow is signaling
Warning: ieee_inexact is signaling
FORTRAN STOP
Warning: ieee_invalid is signaling
Warning: ieee_divide_by_zero is signaling
Warning: ieee_underflow is signaling
Warning: ieee_inexact is signaling
FORTRAN STOP
Warning: ieee_invalid is signaling
Warning: ieee_divide_by_zero is signaling
Warning: ieee_underflow is signaling
Warning: ieee_inexact is signaling
FORTRAN STOP
Warning: ieee_invalid is signaling
Warning: ieee_divide_by_zero is signaling
Warning: ieee_underflow is signaling
Warning: ieee_inexact is signaling
FORTRAN STOP
Warning: ieee_invalid is signaling
Warning: ieee_divide_by_zero is signaling
Warning: ieee_underflow is signaling
Warning: ieee_inexact is signaling
FORTRAN STOP
Warning: ieee_invalid is signaling
Warning: ieee_divide_by_zero is signaling
Warning: ieee_underflow is signaling
Warning: ieee_inexact is signaling
FORTRAN STOP
Warning: ieee_invalid is signaling
Warning: ieee_divide_by_zero is signaling
Warning: ieee_underflow is signaling
Warning: ieee_inexact is signaling
FORTRAN STOP
Warning: ieee_invalid is signaling
Warning: ieee_divide_by_zero is signaling
Warning: ieee_underflow is signaling
Warning: ieee_inexact is signaling
FORTRAN STOP
Warning: ieee_invalid is signaling
Warning: ieee_divide_by_zero is signaling
Warning: ieee_underflow is signaling
Warning: ieee_inexact is signaling
FORTRAN STOP
Warning: ieee_invalid is signaling
Warning: ieee_divide_by_zero is signaling
Warning: ieee_underflow is signaling
Warning: ieee_inexact is signaling
FORTRAN STOP
Warning: ieee_invalid is signaling
Warning: ieee_divide_by_zero is signaling
Warning: ieee_underflow is signaling
Warning: ieee_inexact is signaling
FORTRAN STOP
Warning: ieee_invalid is signaling
Warning: ieee_divide_by_zero is signaling
Warning: ieee_underflow is signaling
Warning: ieee_inexact is signaling
FORTRAN STOP
Warning: ieee_invalid is signaling
Warning: ieee_divide_by_zero is signaling
Warning: ieee_underflow is signaling
Warning: ieee_inexact is signaling
FORTRAN STOP
Warning: ieee_invalid is signaling
Warning: ieee_divide_by_zero is signaling
Warning: ieee_underflow is signaling
Warning: ieee_inexact is signaling
FORTRAN STOP
Warning: ieee_invalid is signaling
Warning: ieee_divide_by_zero is signaling
Warning: ieee_underflow is signaling
Warning: ieee_inexact is signaling
FORTRAN STOP
Warning: ieee_invalid is signaling
Warning: ieee_divide_by_zero is signaling
Warning: ieee_underflow is signaling
Warning: ieee_inexact is signaling
FORTRAN STOP
Warning: ieee_invalid is signaling
Warning: ieee_divide_by_zero is signaling
Warning: ieee_underflow is signaling
Warning: ieee_inexact is signaling
FORTRAN STOP
Warning: ieee_invalid is signaling
Warning: ieee_divide_by_zero is signaling
Warning: ieee_underflow is signaling
Warning: ieee_inexact is signaling
FORTRAN STOP
Warning: ieee_invalid is signaling
Warning: ieee_divide_by_zero is signaling
Warning: ieee_underflow is signaling
Warning: ieee_inexact is signaling
FORTRAN STOP
Warning: ieee_invalid is signaling
Warning: ieee_divide_by_zero is signaling
Warning: ieee_underflow is signaling
Warning: ieee_inexact is signaling
FORTRAN STOP
Warning: ieee_invalid is signaling
Warning: ieee_divide_by_zero is signaling
Warning: ieee_underflow is signaling
Warning: ieee_inexact is signaling
FORTRAN STOP
Warning: ieee_invalid is signaling
Warning: ieee_divide_by_zero is signaling
Warning: ieee_underflow is signaling
Warning: ieee_inexact is signaling
FORTRAN STOP
Warning: ieee_invalid is signaling
Warning: ieee_divide_by_zero is signaling
Warning: ieee_underflow is signaling
Warning: ieee_inexact is signaling
FORTRAN STOP
Warning: ieee_invalid is signaling
Warning: ieee_divide_by_zero is signaling
Warning: ieee_underflow is signaling
Warning: ieee_inexact is signaling
FORTRAN STOP
Warning: ieee_invalid is signaling
Warning: ieee_divide_by_zero is signaling
Warning: ieee_underflow is signaling
Warning: ieee_inexact is signaling
FORTRAN STOP
Warning: ieee_invalid is signaling
Warning: ieee_divide_by_zero is signaling
Warning: ieee_underflow is signaling
Warning: ieee_inexact is signaling
FORTRAN STOP
Warning: ieee_invalid is signaling
Warning: ieee_divide_by_zero is signaling
Warning: ieee_underflow is signaling
Warning: ieee_inexact is signaling
FORTRAN STOP
Warning: ieee_invalid is signaling
Warning: ieee_divide_by_zero is signaling
Warning: ieee_underflow is signaling
Warning: ieee_inexact is signaling
FORTRAN STOP
Warning: ieee_invalid is signaling
Warning: ieee_divide_by_zero is signaling
Warning: ieee_underflow is signaling
Warning: ieee_inexact is signaling
FORTRAN STOP
   2995 T=   262. E= -.10390203E+02 F= -.13715609E+02 E0= -.13715609E+02  EK= 0.10174E+00 SP= 0.32E+01 SK= 0.44E-01
   2996 T=   267. E= -.10390166E+02 F= -.13703181E+02 E0= -.13703181E+02  EK= 0.10347E+00 SP= 0.32E+01 SK= 0.45E-01
   2997 T=   275. E= -.10390113E+02 F= -.13691493E+02 E0= -.13691493E+02  EK= 0.10655E+00 SP= 0.31E+01 SK= 0.47E-01
   2998 T=   288. E= -.10390046E+02 F= -.13681232E+02 E0= -.13681232E+02  EK= 0.11185E+00 SP= 0.31E+01 SK= 0.48E-01
   2999 T=   310. E= -.10389970E+02 F= -.13673067E+02 E0= -.13673067E+02  EK= 0.12031E+00 SP= 0.31E+01 SK= 0.48E-01
   3000 T=   342. E= -.10389895E+02 F= -.13667581E+02 E0= -.13667581E+02  EK= 0.13280E+00 SP= 0.31E+01 SK= 0.47E-01
 PROFILE, used timers:     437
