       N       E                     dE             d eps       ncg     rms          rms(c)
DAV:   1     0.663089683401E+02    0.66309E+02   -0.63000E+03    22   0.113E+03
DAV:   2    -0.511968565910E+01   -0.71429E+02   -0.69638E+02    28   0.242E+02
DAV:   3    -0.182936760876E+02   -0.13174E+02   -0.13167E+02    38   0.836E+01
DAV:   4    -0.186175585667E+02   -0.32388E+00   -0.32388E+00    25   0.183E+01
DAV:   5    -0.186437565271E+02   -0.26198E-01   -0.26198E-01    33   0.332E+00    0.117E+01
RMM:   6    -0.123070649123E+02    0.63367E+01   -0.18978E+01    22   0.213E+01    0.466E+00
RMM:   7    -0.122507736325E+02    0.56291E-01   -0.21807E+00    26   0.838E+00    0.299E+00
RMM:   8    -0.122532208611E+02   -0.24472E-02   -0.40838E-01    25   0.472E+00    0.563E-01
RMM:   9    -0.122952265729E+02   -0.42006E-01   -0.13505E-01    29   0.221E+00    0.581E-01
RMM:  10    -0.123019079379E+02   -0.66814E-02   -0.34150E-02    26   0.137E+00    0.406E-01
RMM:  11    -0.123039626350E+02   -0.20547E-02   -0.15108E-02    26   0.929E-01    0.136E-01
RMM:  12    -0.123044791626E+02   -0.51653E-03   -0.40163E-03    30   0.344E-01    0.855E-02
RMM:  13    -0.123046835787E+02   -0.20442E-03   -0.13557E-03    29   0.188E-01    0.105E-01
RMM:  14    -0.123046550009E+02    0.28578E-04   -0.56696E-04    27   0.114E-01    0.643E-02
RMM:  15    -0.123045877712E+02    0.67230E-04   -0.40313E-04    27   0.111E-01    0.391E-02
RMM:  16    -0.123046073437E+02   -0.19573E-04   -0.16240E-04    22   0.645E-02    0.391E-02
RMM:  17    -0.123046149532E+02   -0.76095E-05   -0.78707E-05    16   0.362E-02
   1 F= -.12304615E+02 E0= -.12304614E+02  d E =-.125068E-05
