<?xml version="1.0" encoding="ISO-8859-1"?>
<modeling>
 <generator>
  <i name="program" type="string">vasp </i>
  <i name="version" type="string">6.4.0  </i>
  <i name="subversion" type="string">14Feb23 (build Mar 22 2023 17:08:00) complex                          parallel </i>
  <i name="platform" type="string">LinuxNV </i>
  <i name="date" type="string">2023 07 29 </i>
  <i name="time" type="string">21:49:10 </i>
 </generator>
 <incar>
  <i type="string" name="PREC">A</i>
  <i type="string" name="ALGO">Fast</i>
  <i type="int" name="NELM">   120</i>
  <i type="int" name="NELMIN">     4</i>
  <i name="EDIFF">      0.00001000</i>
  <i type="int" name="NSW">     0</i>
  <i type="int" name="ISIF">     2</i>
  <i type="int" name="ISYM">     0</i>
  <i name="ENCUT">    400.00000000</i>
  <i type="logical" name="LREAL"> F  </i>
  <i type="int" name="ISMEAR">     0</i>
  <i name="SIGMA">      0.10000000</i>
  <i name="KSPACING">     10.00000000</i>
  <i type="logical" name="KGAMMA"> T  </i>
  <i type="logical" name="LWAVE"> F  </i>
  <i type="logical" name="LCHARG"> F  </i>
 </incar>
 <primitive_cell>
  <structure name="primitive_cell" >
   <crystal>
    <varray name="basis" >
     <v>       3.60972740       0.00000000       0.00000000 </v>
     <v>      -1.80486370       3.12611563       0.00000000 </v>
     <v>       0.00000000       0.00000000       3.85463861 </v>
    </varray>
    <i name="volume">     43.49738124 </i>
    <varray name="rec_basis" >
     <v>       0.27702923       0.15994290      -0.00000000 </v>
     <v>       0.00000000       0.31988580       0.00000000 </v>
     <v>       0.00000000      -0.00000000       0.25942769 </v>
    </varray>
   </crystal>
   <varray name="positions" >
    <v>       0.33333333       0.66666667       0.00000000 </v>
    <v>       0.66666667       0.33333333       0.00000000 </v>
    <v>       0.00000000       0.00000000       0.50000000 </v>
    <v>       0.00000000       0.00000000       0.00000000 </v>
   </varray>
  </structure>
  <varray name="primitive_index" >
   <v type="int" >        1 </v>
   <v type="int" >        2 </v>
   <v type="int" >        3 </v>
   <v type="int" >        4 </v>
  </varray>
 </primitive_cell>
 <kpoints>
  <generation param="Gamma">
   <v type="int" name="divisions">       1        1        1 </v>
   <v name="usershift">      0.00000000       0.00000000       0.00000000 </v>
   <v name="genvec1">      1.00000000       0.00000000       0.00000000 </v>
   <v name="genvec2">      0.00000000       1.00000000       0.00000000 </v>
   <v name="genvec3">      0.00000000       0.00000000       1.00000000 </v>
   <v name="shift">      0.00000000       0.00000000       0.00000000 </v>
  </generation>
  <varray name="kpointlist" >
   <v>       0.00000000       0.00000000       0.00000000 </v>
  </varray>
  <varray name="weights" >
   <v>       1.00000000 </v>
  </varray>
 </kpoints>
 <parameters>
  <separator name="general" >
   <i type="string" name="SYSTEM">unknown system</i>
   <i type="logical" name="LCOMPAT"> F  </i>
  </separator>
  <separator name="electronic" >
   <i type="string" name="PREC">a</i>
   <i name="ENMAX">    400.00000000</i>
   <i name="ENAUG">    628.94500000</i>
   <i name="EDIFF">      0.00001000</i>
   <i type="int" name="IALGO">    68</i>
   <i type="int" name="IWAVPR">    10</i>
   <i type="int" name="NBANDS">    11</i>
   <i type="int" name="NBANDSLOW">    -1</i>
   <i type="int" name="NBANDSHIGH">    -1</i>
   <i name="NELECT">     14.00000000</i>
   <i type="int" name="TURBO">     0</i>
   <i type="int" name="IRESTART">     0</i>
   <i type="int" name="NREBOOT">     0</i>
   <i type="int" name="NMIN">     0</i>
   <i name="EREF">      0.00000000</i>
   <separator name="electronic smearing" >
    <i type="int" name="ISMEAR">     0</i>
    <i name="SIGMA">      0.10000000</i>
    <i name="KSPACING">     10.00000000</i>
    <i type="logical" name="KGAMMA"> T  </i>
    <i type="logical" name="KBLOWUP"> T  </i>
   </separator>
   <separator name="electronic projectors" >
    <i type="logical" name="LREAL"> F  </i>
    <v name="ROPT">      0.00000000      0.00000000</v>
    <i type="int" name="LMAXPAW">  -100</i>
    <i type="int" name="LMAXMIX">     2</i>
    <i type="logical" name="NLSPLINE"> F  </i>
   </separator>
   <separator name="electronic startup" >
    <i type="int" name="ISTART">     0</i>
    <i type="int" name="ICHARG">     2</i>
    <i type="int" name="INIWAV">     1</i>
   </separator>
   <separator name="electronic spin" >
    <i type="int" name="ISPIN">     1</i>
    <i type="logical" name="LNONCOLLINEAR"> F  </i>
    <v name="MAGMOM">      1.00000000      1.00000000      1.00000000      1.00000000</v>
    <i name="NUPDOWN">     -1.00000000</i>
    <i type="logical" name="LSORBIT"> F  </i>
    <v name="SAXIS">      0.00000000      0.00000000      1.00000000</v>
    <i type="logical" name="LSPIRAL"> F  </i>
    <v name="QSPIRAL">      0.00000000      0.00000000      0.00000000</v>
    <i type="logical" name="LZEROZ"> F  </i>
   </separator>
   <separator name="electronic exchange-correlation" >
    <i type="logical" name="LASPH"> F  </i>
    <i type="logical" name="LMETAGGA"> F  </i>
   </separator>
   <separator name="electronic convergence" >
    <i type="int" name="NELM">   120</i>
    <i type="int" name="NELMDL">     0</i>
    <i type="int" name="NELMIN">     4</i>
    <i name="ENINI">    400.00000000</i>
    <separator name="electronic convergence detail" >
     <i type="logical" name="LDIAG"> T  </i>
     <i type="logical" name="LSUBROT"> F  </i>
     <i name="WEIMIN">      0.00000000</i>
     <i name="EBREAK">      0.00000023</i>
     <i name="DEPER">      0.30000000</i>
     <i type="int" name="NRMM">     4</i>
     <i name="TIME">      0.40000000</i>
    </separator>
   </separator>
   <separator name="electronic mixer" >
    <i name="AMIX">      0.40000000</i>
    <i name="BMIX">      1.00000000</i>
    <i name="AMIN">      0.10000000</i>
    <i name="AMIX_MAG">      1.60000000</i>
    <i name="BMIX_MAG">      1.00000000</i>
    <separator name="electronic mixer details" >
     <i type="int" name="IMIX">     4</i>
     <i type="logical" name="MIXFIRST"> F  </i>
     <i type="int" name="MAXMIX">   -45</i>
     <i name="WC">    100.00000000</i>
     <i type="int" name="INIMIX">     1</i>
     <i type="int" name="MIXPRE">     1</i>
     <i type="int" name="MREMOVE">     5</i>
    </separator>
   </separator>
   <separator name="electronic dipolcorrection" >
    <i type="logical" name="LDIPOL"> F  </i>
    <i type="logical" name="LMONO"> F  </i>
    <i type="int" name="IDIPOL">     0</i>
    <i name="EPSILON">      1.00000000</i>
    <v name="DIPOL">   -100.00000000   -100.00000000   -100.00000000</v>
    <i name="EFIELD">      0.00000000</i>
   </separator>
  </separator>
  <separator name="grids" >
   <i type="int" name="NGX">    24</i>
   <i type="int" name="NGY">    24</i>
   <i type="int" name="NGZ">    28</i>
   <i type="int" name="NGXF">    48</i>
   <i type="int" name="NGYF">    48</i>
   <i type="int" name="NGZF">    56</i>
   <i type="logical" name="ADDGRID"> F  </i>
  </separator>
  <separator name="ionic" >
   <i type="int" name="NSW">     0</i>
   <i type="int" name="IBRION">    -1</i>
   <i type="int" name="MDALGO">     0</i>
   <i type="int" name="ISIF">     2</i>
   <i name="PSTRESS">      0.00000000</i>
   <i name="EDIFFG">      0.00010000</i>
   <i type="int" name="NFREE">     0</i>
   <i name="POTIM">      0.50000000</i>
   <i name="SMASS">     -3.00000000</i>
   <i name="SCALEE">      1.00000000</i>
  </separator>
  <separator name="ionic md" >
   <i name="TEBEG">      0.00010000</i>
   <i name="TEEND">      0.00010000</i>
   <i type="int" name="NBLOCK">     1</i>
   <i type="int" name="KBLOCK">     1</i>
   <i type="int" name="NPACO">   256</i>
   <i name="APACO">     10.00000000</i>
  </separator>
  <separator name="symmetry" >
   <i type="int" name="ISYM">     0</i>
   <i name="SYMPREC">      0.00001000</i>
  </separator>
  <separator name="dos" >
   <i type="int" name="LORBIT">     0</i>
   <v name="RWIGS">     -1.00000000     -1.00000000</v>
   <i type="int" name="NEDOS">   301</i>
   <i name="EMIN">     10.00000000</i>
   <i name="EMAX">    -10.00000000</i>
   <i name="EFERMI">      0.00000000</i>
  </separator>
  <separator name="writing" >
   <i type="int" name="NWRITE">     2</i>
   <i type="logical" name="LWAVE"> F  </i>
   <i type="logical" name="LDOWNSAMPLE"> F  </i>
   <i type="logical" name="LCHARG"> F  </i>
   <i type="logical" name="LPARD"> F  </i>
   <i type="logical" name="LVTOT"> F  </i>
   <i type="logical" name="LVHAR"> F  </i>
   <i type="logical" name="LELF"> F  </i>
   <i type="logical" name="LOPTICS"> F  </i>
   <v name="STM">      0.00000000      0.00000000      0.00000000      0.00000000      0.00000000      0.00000000      0.00000000</v>
  </separator>
  <separator name="performance" >
   <i type="int" name="NPAR">     1</i>
   <i type="int" name="NSIM">     4</i>
   <i type="int" name="NBLK">    -1</i>
   <i type="logical" name="LPLANE"> T  </i>
   <i type="logical" name="LSCALAPACK"> T  </i>
   <i type="logical" name="LSCAAWARE"> F  </i>
   <i type="logical" name="LSCALU"> F  </i>
   <i type="logical" name="LASYNC"> F  </i>
   <i type="logical" name="LORBITALREAL"> F  </i>
  </separator>
  <separator name="miscellaneous" >
   <i type="int" name="IDIOT">     3</i>
   <i type="int" name="PHON_NSTRUCT">    -1</i>
   <i type="logical" name="LMUSIC"> F  </i>
   <v name="POMASS">      7.01000000     14.00100000</v>
   <v name="DARWINR">      0.00000000      0.00000000</v>
   <v name="DARWINV">      1.00000000      1.00000000</v>
   <i type="logical" name="LCORR"> T  </i>
  </separator>
  <i type="logical" name="GGA_COMPAT"> T  </i>
  <i type="logical" name="LBERRY"> F  </i>
  <i type="int" name="ICORELEVEL">     0</i>
  <i type="logical" name="LDAU"> F  </i>
  <i type="int" name="I_CONSTRAINED_M">     0</i>
  <separator name="electronic exchange-correlation" >
   <i type="string" name="GGA">--</i>
   <i type="int" name="VOSKOWN">     0</i>
   <i type="logical" name="LHFCALC"> F  </i>
   <i type="string" name="PRECFOCK"></i>
   <i type="logical" name="LSYMGRAD"> F  </i>
   <i type="logical" name="LHFONE"> F  </i>
   <i type="logical" name="LRHFCALC"> F  </i>
   <i type="logical" name="LTHOMAS"> F  </i>
   <i type="logical" name="LMODELHF"> F  </i>
   <i type="logical" name="LFOCKACE"> F  </i>
   <i name="ENCUT4O">     -1.00000000</i>
   <i type="int" name="EXXOEP">     0</i>
   <i type="int" name="FOURORBIT">     0</i>
   <i name="AEXX">      0.00000000</i>
   <i name="HFALPHA">      0.00000000</i>
   <i name="MCALPHA">      0.00000000</i>
   <i name="ALDAX">      1.00000000</i>
   <i name="AGGAX">      1.00000000</i>
   <i name="ALDAC">      1.00000000</i>
   <i name="AGGAC">      1.00000000</i>
   <i type="int" name="NKREDX">     1</i>
   <i type="int" name="NKREDY">     1</i>
   <i type="int" name="NKREDZ">     1</i>
   <i type="logical" name="SHIFTRED"> F  </i>
   <i type="logical" name="ODDONLY"> F  </i>
   <i type="logical" name="EVENONLY"> F  </i>
   <i type="int" name="LMAXFOCK">     0</i>
   <i type="int" name="NMAXFOCKAE">     0</i>
   <i type="logical" name="LFOCKAEDFT"> F  </i>
   <i name="HFSCREEN">      0.00000000</i>
   <i name="HFSCREENC">      0.00000000</i>
   <i type="int" name="NBANDSGWLOW">     0</i>
  </separator>
  <separator name="vdW DFT" >
   <i type="logical" name="LUSE_VDW"> F  </i>
   <i type="int" name="IVDW_NL">     1</i>
   <i type="logical" name="LSPIN_VDW"> F  </i>
   <i name="Zab_VDW">     -0.84910000</i>
   <i name="PARAM1">      0.12340000</i>
   <i name="PARAM2">      1.00000000</i>
   <i name="PARAM3">      0.00000000</i>
  </separator>
  <separator name="model GW" >
   <i type="int" name="MODEL_GW">     0</i>
   <i name="MODEL_EPS0">      6.52460719</i>
   <i name="MODEL_ALPHA">      1.00000000</i>
  </separator>
  <separator name="linear response parameters" >
   <i type="logical" name="LEPSILON"> F  </i>
   <i type="logical" name="LRPA"> F  </i>
   <i type="logical" name="LNABLA"> F  </i>
   <i type="logical" name="LVEL"> F  </i>
   <i name="CSHIFT">      0.10000000</i>
   <i name="OMEGAMAX">     -1.00000000</i>
   <i name="DEG_THRESHOLD">      0.00200000</i>
   <i name="RTIME">     -0.10000000</i>
   <i name="WPLASMAI">      0.00000000</i>
   <v name="DFIELD">      0.00000000      0.00000000      0.00000000</v>
   <v name="WPLASMA">      0.00000000      0.00000000      0.00000000      0.00000000      0.00000000      0.00000000      0.00000000      0.00000000      0.00000000</v>
  </separator>
  <separator name="orbital magnetization" >
   <i type="logical" name="NUCIND"> F  </i>
   <v name="MAGPOS">      0.00000000      0.00000000      0.00000000</v>
   <i type="logical" name="LNICSALL"> T  </i>
   <i type="logical" name="ORBITALMAG"> F  </i>
   <i type="logical" name="LMAGBLOCH"> F  </i>
   <i type="logical" name="LCHIMAG"> F  </i>
   <i type="logical" name="LGAUGE"> T  </i>
   <i type="int" name="MAGATOM">     0</i>
   <v name="MAGDIPOL">      0.00000000      0.00000000      0.00000000</v>
   <v name="AVECCONST">      0.00000000      0.00000000      0.00000000</v>
  </separator>
  <separator name="response functions" >
   <i type="logical" name="LALL_IN_ONE"> F  </i>
   <i type="int" name="IALL_IN_ONE">    -1</i>
   <i type="int" name="NBANDS_WAVE">    -1</i>
   <i type="logical" name="LFINITE_TEMPERATURE"> F  </i>
   <i type="logical" name="LADDER"> F  </i>
   <i type="logical" name="LRPAFORCE"> F  </i>
   <i type="logical" name="LFXC"> F  </i>
   <i type="logical" name="LHARTREE"> T  </i>
   <i type="int" name="IBSE">     0</i>
   <v type="int" name="KPOINT">    -1     0     0     0</v>
   <i type="logical" name="LTCTC"> F  </i>
   <i type="logical" name="LTCTE"> F  </i>
   <i type="logical" name="LTETE"> F  </i>
   <i type="logical" name="LTRIPLET"> F  </i>
   <i type="logical" name="LFXCEPS"> F  </i>
   <i type="logical" name="LFXHEG"> F  </i>
   <i type="int" name="NATURALO">     2</i>
   <i type="logical" name="LHOLEGF"> F  </i>
   <i type="logical" name="L2ORDER"> F  </i>
   <i type="logical" name="LDMP1"> F  </i>
   <i type="logical" name="LMP2LT"> F  </i>
   <i type="logical" name="LSMP2LT"> F  </i>
   <i type="logical" name="LGWLF"> F  </i>
   <i name="ENCUTGW">     -1.60000002</i>
   <i name="ENCUTGWSOFT">     -1.60000002</i>
   <i name="ENCUTLF">     -1.00000000</i>
   <i type="logical" name="LESF_SPLINES"> F  </i>
   <i type="int" name="LMAXMP2">    -1</i>
   <i name="SCISSOR">      0.00000000</i>
   <i type="int" name="NOMEGA">     0</i>
   <i type="int" name="NOMEGAR">     0</i>
   <i type="int" name="NBANDSGW">    -1</i>
   <i type="int" name="NBANDSO">    -1</i>
   <i type="int" name="NBANDSV">    -1</i>
   <i type="int" name="NELMGW">     1</i>
   <i type="int" name="NELMHF">     1</i>
   <i type="int" name="DIM">     3</i>
   <i type="int" name="IESPILON">     4</i>
   <i type="int" name="ANTIRES">     0</i>
   <i name="OMEGAMAX">    -30.00000000</i>
   <i name="OMEGAMIN">    -30.00000000</i>
   <i name="OMEGATL">   -200.00000000</i>
   <i type="int" name="OMEGAGRID">     0</i>
   <i name="CSHIFT">     -0.10000000</i>
   <i type="logical" name="LSELFENERGY"> F  </i>
   <i type="logical" name="LSPECTRAL"> F  </i>
   <i type="logical" name="LSPECTRALGW"> F  </i>
   <i type="logical" name="LSINGLES"> F  </i>
   <i type="logical" name="LFERMIGW"> F  </i>
   <i type="logical" name="ODDONLYGW"> F  </i>
   <i type="logical" name="EVENONLYGW"> F  </i>
   <i type="int" name="NKREDLFX">     1</i>
   <i type="int" name="NKREDLFY">     1</i>
   <i type="int" name="NKREDLFZ">     1</i>
   <i type="int" name="MAXMEM">  2800</i>
   <i type="int" name="TELESCOPE">     0</i>
   <i type="int" name="NTAUPAR">    -1</i>
   <i type="int" name="NOMEGAPAR">    -1</i>
   <i name="DAMP_NEWTON">      0.80000001</i>
   <i name="LAMBDA">      1.00000000</i>
  </separator>
  <separator name="External order field" >
   <i name="OFIELD_KAPPA">      0.00000000</i>
   <v name="OFIELD_K">      0.00000000      0.00000000      0.00000000</v>
   <i name="OFIELD_Q6_NEAR">      0.00000000</i>
   <i name="OFIELD_Q6_FAR">      0.00000000</i>
   <i name="OFIELD_A">      0.00000000</i>
  </separator>
  <separator name="optional k-points parameters" >
   <i type="int" name="KPOINTS_OPT_MODE">     1</i>
   <i type="logical" name="LKPOINTS_OPT"> F  </i>
  </separator>
 </parameters>
 <atominfo>
  <atoms>       4 </atoms>
  <types>       2 </types>
  <array name="atoms" >
   <dimension dim="1">ion</dimension>
   <field type="string">element</field>
   <field type="int">atomtype</field>
   <set>
    <rc><c>Li</c><c>   1</c></rc>
    <rc><c>Li</c><c>   1</c></rc>
    <rc><c>Li</c><c>   1</c></rc>
    <rc><c>N </c><c>   2</c></rc>
   </set>
  </array>
  <array name="atomtypes" >
   <dimension dim="1">type</dimension>
   <field type="int">atomspertype</field>
   <field type="string">element</field>
   <field>mass</field>
   <field>valence</field>
   <field type="string">pseudopotential</field>
   <set>
    <rc><c>   3</c><c>Li</c><c>      7.01000000</c><c>      3.00000000</c><c>  PAW_PBE Li_sv 10Sep2004               </c></rc>
    <rc><c>   1</c><c>N </c><c>     14.00100000</c><c>      5.00000000</c><c>  PAW_PBE N 08Apr2002                   </c></rc>
   </set>
  </array>
 </atominfo>
 <structure name="initialpos" >
  <crystal>
   <varray name="basis" >
    <v>       3.60972740       0.00000000       0.00000000 </v>
    <v>      -1.80486370       3.12611563       0.00000000 </v>
    <v>       0.00000000       0.00000000       3.85463861 </v>
   </varray>
   <i name="volume">     43.49738124 </i>
   <varray name="rec_basis" >
    <v>       0.27702923       0.15994290      -0.00000000 </v>
    <v>       0.00000000       0.31988580       0.00000000 </v>
    <v>       0.00000000      -0.00000000       0.25942769 </v>
   </varray>
  </crystal>
  <varray name="positions" >
   <v>       0.33333333       0.66666667       0.00000000 </v>
   <v>       0.66666667       0.33333333       0.00000000 </v>
   <v>       0.00000000       0.00000000       0.50000000 </v>
   <v>       0.00000000       0.00000000       0.00000000 </v>
  </varray>
 </structure>
 <calculation>
  <scstep>
   <time name="dav">    0.17    1.83</time>
   <time name="total">    0.20    2.05</time>
   <energy>
    <i name="alphaZ">     14.34493196 </i>
    <i name="ewald">   -419.82538280 </i>
    <i name="hartreedc">   -193.98976883 </i>
    <i name="XCdc">     56.67790603 </i>
    <i name="pawpsdc">    444.21760914 </i>
    <i name="pawaedc">   -491.62491539 </i>
    <i name="eentropy">     -0.00000000 </i>
    <i name="bandstr">   -216.04597744 </i>
    <i name="atom">    872.55456566 </i>
    <i name="e_fr_energy">     66.30896834 </i>
    <i name="e_wo_entrp">     66.30896834 </i>
    <i name="e_0_energy">     66.30896834 </i>
   </energy>
  </scstep>
  <scstep>
   <time name="dav">    0.02    0.17</time>
   <time name="total">    0.02    0.17</time>
   <energy>
    <i name="e_fr_energy">     -5.11968566 </i>
    <i name="e_wo_entrp">     -5.11968566 </i>
    <i name="e_0_energy">     -5.11968566 </i>
   </energy>
  </scstep>
  <scstep>
   <time name="dav">    0.02    0.29</time>
   <time name="total">    0.02    0.29</time>
   <energy>
    <i name="e_fr_energy">    -18.29367609 </i>
    <i name="e_wo_entrp">    -18.29367609 </i>
    <i name="e_0_energy">    -18.29367609 </i>
   </energy>
  </scstep>
  <scstep>
   <time name="dav">    0.02    0.17</time>
   <time name="total">    0.02    0.17</time>
   <energy>
    <i name="e_fr_energy">    -18.61755857 </i>
    <i name="e_wo_entrp">    -18.61755857 </i>
    <i name="e_0_energy">    -18.61755857 </i>
   </energy>
  </scstep>
  <scstep>
   <time name="dav">    0.02    0.23</time>
   <time name="total">    0.03    0.31</time>
   <energy>
    <i name="e_fr_energy">    -18.64375653 </i>
    <i name="e_wo_entrp">    -18.64375653 </i>
    <i name="e_0_energy">    -18.64375653 </i>
   </energy>
  </scstep>
  <scstep>
   <time name="diag">    0.00    0.05</time>
   <time name="diis">    0.02    0.21</time>
   <time name="orth">    0.00    0.00</time>
   <time name="total">    0.04    0.46</time>
   <energy>
    <i name="e_fr_energy">    -12.30706491 </i>
    <i name="e_wo_entrp">    -12.30706478 </i>
    <i name="e_0_energy">    -12.30706484 </i>
   </energy>
  </scstep>
  <scstep>
   <time name="diag">    0.00    0.03</time>
   <time name="diis">    0.02    0.21</time>
   <time name="orth">    0.00    0.00</time>
   <time name="total">    0.04    0.42</time>
   <energy>
    <i name="e_fr_energy">    -12.25077363 </i>
    <i name="e_wo_entrp">    -12.24166644 </i>
    <i name="e_0_energy">    -12.24622004 </i>
   </energy>
  </scstep>
  <scstep>
   <time name="diag">    0.00    0.07</time>
   <time name="diis">    0.02    0.16</time>
   <time name="orth">    0.00    0.00</time>
   <time name="total">    0.03    0.36</time>
   <energy>
    <i name="e_fr_energy">    -12.25322086 </i>
    <i name="e_wo_entrp">    -12.25303568 </i>
    <i name="e_0_energy">    -12.25312827 </i>
   </energy>
  </scstep>
  <scstep>
   <time name="diag">    0.00    0.04</time>
   <time name="diis">    0.02    0.23</time>
   <time name="orth">    0.00    0.00</time>
   <time name="total">    0.04    0.46</time>
   <energy>
    <i name="e_fr_energy">    -12.29522657 </i>
    <i name="e_wo_entrp">    -12.29521235 </i>
    <i name="e_0_energy">    -12.29521946 </i>
   </energy>
  </scstep>
  <scstep>
   <time name="diag">    0.00    0.07</time>
   <time name="diis">    0.02    0.18</time>
   <time name="orth">    0.00    0.00</time>
   <time name="total">    0.04    0.41</time>
   <energy>
    <i name="e_fr_energy">    -12.30190794 </i>
    <i name="e_wo_entrp">    -12.30190327 </i>
    <i name="e_0_energy">    -12.30190561 </i>
   </energy>
  </scstep>
  <scstep>
   <time name="diag">    0.00    0.02</time>
   <time name="diis">    0.02    0.26</time>
   <time name="orth">    0.00    0.02</time>
   <time name="total">    0.04    0.46</time>
   <energy>
    <i name="e_fr_energy">    -12.30396263 </i>
    <i name="e_wo_entrp">    -12.30396106 </i>
    <i name="e_0_energy">    -12.30396185 </i>
   </energy>
  </scstep>
  <scstep>
   <time name="diag">    0.00    0.03</time>
   <time name="diis">    0.02    0.24</time>
   <time name="orth">    0.00    0.04</time>
   <time name="total">    0.04    0.43</time>
   <energy>
    <i name="e_fr_energy">    -12.30447916 </i>
    <i name="e_wo_entrp">    -12.30447708 </i>
    <i name="e_0_energy">    -12.30447812 </i>
   </energy>
  </scstep>
  <scstep>
   <time name="diag">    0.00    0.02</time>
   <time name="diis">    0.02    0.25</time>
   <time name="orth">    0.00    0.03</time>
   <time name="total">    0.04    0.46</time>
   <energy>
    <i name="e_fr_energy">    -12.30468358 </i>
    <i name="e_wo_entrp">    -12.30468110 </i>
    <i name="e_0_energy">    -12.30468234 </i>
   </energy>
  </scstep>
  <scstep>
   <time name="diag">    0.00    0.05</time>
   <time name="diis">    0.02    0.23</time>
   <time name="orth">    0.00    0.02</time>
   <time name="total">    0.04    0.41</time>
   <energy>
    <i name="e_fr_energy">    -12.30465500 </i>
    <i name="e_wo_entrp">    -12.30465327 </i>
    <i name="e_0_energy">    -12.30465413 </i>
   </energy>
  </scstep>
  <scstep>
   <time name="diag">    0.00    0.03</time>
   <time name="diis">    0.02    0.19</time>
   <time name="orth">    0.00    0.00</time>
   <time name="total">    0.04    0.36</time>
   <energy>
    <i name="e_fr_energy">    -12.30458777 </i>
    <i name="e_wo_entrp">    -12.30458659 </i>
    <i name="e_0_energy">    -12.30458718 </i>
   </energy>
  </scstep>
  <scstep>
   <time name="diag">    0.00    0.02</time>
   <time name="diis">    0.02    0.26</time>
   <time name="orth">    0.00    0.00</time>
   <time name="total">    0.04    0.43</time>
   <energy>
    <i name="e_fr_energy">    -12.30460734 </i>
    <i name="e_wo_entrp">    -12.30460611 </i>
    <i name="e_0_energy">    -12.30460673 </i>
   </energy>
  </scstep>
  <scstep>
   <time name="diag">    0.00    0.00</time>
   <time name="diis">    0.01    0.11</time>
   <time name="orth">    0.00    0.00</time>
   <time name="total">    0.03    0.25</time>
   <energy>
    <i name="alphaZ">     14.34493196 </i>
    <i name="ewald">   -419.82538280 </i>
    <i name="hartreedc">   -225.37260254 </i>
    <i name="XCdc">     58.23212969 </i>
    <i name="pawpsdc">    622.27344008 </i>
    <i name="pawaedc">   -671.50316665 </i>
    <i name="eentropy">     -0.00000125 </i>
    <i name="bandstr">   -263.00852911 </i>
    <i name="atom">    872.55456566 </i>
    <i name="e_fr_energy">    -12.30461495 </i>
    <i name="e_wo_entrp">    -12.30461370 </i>
    <i name="e_0_energy">    -12.30461433 </i>
   </energy>
  </scstep>
  <structure>
   <crystal>
    <varray name="basis" >
     <v>       3.60972740       0.00000000       0.00000000 </v>
     <v>      -1.80486370       3.12611563       0.00000000 </v>
     <v>       0.00000000       0.00000000       3.85463861 </v>
    </varray>
    <i name="volume">     43.49738124 </i>
    <varray name="rec_basis" >
     <v>       0.27702923       0.15994290      -0.00000000 </v>
     <v>       0.00000000       0.31988580       0.00000000 </v>
     <v>       0.00000000      -0.00000000       0.25942769 </v>
    </varray>
   </crystal>
   <varray name="positions" >
    <v>       0.33333333       0.66666667       0.00000000 </v>
    <v>       0.66666667       0.33333333       0.00000000 </v>
    <v>       0.00000000       0.00000000       0.50000000 </v>
    <v>       0.00000000       0.00000000       0.00000000 </v>
   </varray>
  </structure>
  <varray name="forces" >
   <v>       0.00001998       0.00006266       0.00035447 </v>
   <v>       0.00005593       0.00000607       0.00011123 </v>
   <v>      -0.00001968       0.00001191       0.00037248 </v>
   <v>      -0.00005623      -0.00008063      -0.00083818 </v>
  </varray>
  <varray name="stress" >
   <v>      15.77862209       0.00752985       0.00077946 </v>
   <v>       0.00752948      15.78772543      -0.00037582 </v>
   <v>       0.00077966      -0.00037581     -18.32209686 </v>
  </varray>
  <energy>
   <i name="e_fr_energy">    -12.30461495 </i>
   <i name="e_wo_entrp">    -12.30461370 </i>
   <i name="e_0_energy">    -12.30461433 </i>
  </energy>
  <time name="totalsc">    0.81    8.88</time>
  <eigenvalues>
   <array>
    <dimension dim="1">band</dimension>
    <dimension dim="2">kpoint</dimension>
    <dimension dim="3">spin</dimension>
    <field>eigene</field>
    <field>occ</field>
    <set>
     <set comment="spin 1">
      <set comment="kpoint 1">
       <r>  -43.5156    1.0000 </r>
       <r>  -43.1731    1.0000 </r>
       <r>  -42.4150    1.0000 </r>
       <r>   -8.5184    1.0000 </r>
       <r>    0.8500    1.0000 </r>
       <r>    2.6339    1.0000 </r>
       <r>    2.6339    1.0000 </r>
       <r>    3.3196    0.0000 </r>
       <r>    9.4279    0.0000 </r>
       <r>    9.4282    0.0000 </r>
       <r>   10.4441    0.0000 </r>
      </set>
     </set>
    </set>
   </array>
  </eigenvalues>
  <separator name="orbital magnetization" >
   <v name="MAGDIPOLOUT">      0.00000000      0.00000000      0.00000000</v>
  </separator>
  <dos>
   <i name="efermi">      2.98162759 </i>
   <total>
    <array>
     <dimension dim="1">gridpoints</dimension>
     <dimension dim="2">spin</dimension>
     <field>energy</field>
     <field>total</field>
     <field>integrated</field>
     <set>
      <set comment="spin 1">
       <r>   -46.2136     0.0000     0.0000 </r>
       <r>   -46.0158     0.0000     0.0000 </r>
       <r>   -45.8179     0.0000     0.0000 </r>
       <r>   -45.6201     0.0000     0.0000 </r>
       <r>   -45.4222     0.0000     0.0000 </r>
       <r>   -45.2244     0.0000     0.0000 </r>
       <r>   -45.0265     0.0000     0.0000 </r>
       <r>   -44.8287     0.0000     0.0000 </r>
       <r>   -44.6308     0.0000     0.0000 </r>
       <r>   -44.4330     0.0000     0.0000 </r>
       <r>   -44.2351     0.0000     0.0000 </r>
       <r>   -44.0373     0.0000     0.0000 </r>
       <r>   -43.8394     0.0000     0.0000 </r>
       <r>   -43.6415     0.3789     0.0750 </r>
       <r>   -43.4437     8.1688     1.6912 </r>
       <r>   -43.2458     3.0946     2.3035 </r>
       <r>   -43.0480     8.1863     3.9232 </r>
       <r>   -42.8501     0.3883     4.0000 </r>
       <r>   -42.6523     0.0040     4.0008 </r>
       <r>   -42.4544     2.9110     4.5767 </r>
       <r>   -42.2566     7.0667     5.9749 </r>
       <r>   -42.0587     0.1268     6.0000 </r>
       <r>   -41.8609     0.0000     6.0000 </r>
       <r>   -41.6630     0.0000     6.0000 </r>
       <r>   -41.4652     0.0000     6.0000 </r>
       <r>   -41.2673     0.0000     6.0000 </r>
       <r>   -41.0695     0.0000     6.0000 </r>
       <r>   -40.8716     0.0000     6.0000 </r>
       <r>   -40.6738     0.0000     6.0000 </r>
       <r>   -40.4759     0.0000     6.0000 </r>
       <r>   -40.2781     0.0000     6.0000 </r>
       <r>   -40.0802     0.0000     6.0000 </r>
       <r>   -39.8824     0.0000     6.0000 </r>
       <r>   -39.6845     0.0000     6.0000 </r>
       <r>   -39.4866     0.0000     6.0000 </r>
       <r>   -39.2888     0.0000     6.0000 </r>
       <r>   -39.0909     0.0000     6.0000 </r>
       <r>   -38.8931     0.0000     6.0000 </r>
       <r>   -38.6952     0.0000     6.0000 </r>
       <r>   -38.4974     0.0000     6.0000 </r>
       <r>   -38.2995     0.0000     6.0000 </r>
       <r>   -38.1017     0.0000     6.0000 </r>
       <r>   -37.9038     0.0000     6.0000 </r>
       <r>   -37.7060     0.0000     6.0000 </r>
       <r>   -37.5081     0.0000     6.0000 </r>
       <r>   -37.3103     0.0000     6.0000 </r>
       <r>   -37.1124     0.0000     6.0000 </r>
       <r>   -36.9146     0.0000     6.0000 </r>
       <r>   -36.7167     0.0000     6.0000 </r>
       <r>   -36.5189     0.0000     6.0000 </r>
       <r>   -36.3210     0.0000     6.0000 </r>
       <r>   -36.1232     0.0000     6.0000 </r>
       <r>   -35.9253     0.0000     6.0000 </r>
       <r>   -35.7274     0.0000     6.0000 </r>
       <r>   -35.5296     0.0000     6.0000 </r>
       <r>   -35.3317     0.0000     6.0000 </r>
       <r>   -35.1339     0.0000     6.0000 </r>
       <r>   -34.9360     0.0000     6.0000 </r>
       <r>   -34.7382     0.0000     6.0000 </r>
       <r>   -34.5403     0.0000     6.0000 </r>
       <r>   -34.3425     0.0000     6.0000 </r>
       <r>   -34.1446     0.0000     6.0000 </r>
       <r>   -33.9468     0.0000     6.0000 </r>
       <r>   -33.7489     0.0000     6.0000 </r>
       <r>   -33.5511     0.0000     6.0000 </r>
       <r>   -33.3532     0.0000     6.0000 </r>
       <r>   -33.1554     0.0000     6.0000 </r>
       <r>   -32.9575     0.0000     6.0000 </r>
       <r>   -32.7597     0.0000     6.0000 </r>
       <r>   -32.5618     0.0000     6.0000 </r>
       <r>   -32.3640     0.0000     6.0000 </r>
       <r>   -32.1661     0.0000     6.0000 </r>
       <r>   -31.9682     0.0000     6.0000 </r>
       <r>   -31.7704     0.0000     6.0000 </r>
       <r>   -31.5725     0.0000     6.0000 </r>
       <r>   -31.3747     0.0000     6.0000 </r>
       <r>   -31.1768     0.0000     6.0000 </r>
       <r>   -30.9790     0.0000     6.0000 </r>
       <r>   -30.7811     0.0000     6.0000 </r>
       <r>   -30.5833     0.0000     6.0000 </r>
       <r>   -30.3854     0.0000     6.0000 </r>
       <r>   -30.1876     0.0000     6.0000 </r>
       <r>   -29.9897     0.0000     6.0000 </r>
       <r>   -29.7919     0.0000     6.0000 </r>
       <r>   -29.5940     0.0000     6.0000 </r>
       <r>   -29.3962     0.0000     6.0000 </r>
       <r>   -29.1983     0.0000     6.0000 </r>
       <r>   -29.0005     0.0000     6.0000 </r>
       <r>   -28.8026     0.0000     6.0000 </r>
       <r>   -28.6048     0.0000     6.0000 </r>
       <r>   -28.4069     0.0000     6.0000 </r>
       <r>   -28.2091     0.0000     6.0000 </r>
       <r>   -28.0112     0.0000     6.0000 </r>
       <r>   -27.8133     0.0000     6.0000 </r>
       <r>   -27.6155     0.0000     6.0000 </r>
       <r>   -27.4176     0.0000     6.0000 </r>
       <r>   -27.2198     0.0000     6.0000 </r>
       <r>   -27.0219     0.0000     6.0000 </r>
       <r>   -26.8241     0.0000     6.0000 </r>
       <r>   -26.6262     0.0000     6.0000 </r>
       <r>   -26.4284     0.0000     6.0000 </r>
       <r>   -26.2305     0.0000     6.0000 </r>
       <r>   -26.0327     0.0000     6.0000 </r>
       <r>   -25.8348     0.0000     6.0000 </r>
       <r>   -25.6370     0.0000     6.0000 </r>
       <r>   -25.4391     0.0000     6.0000 </r>
       <r>   -25.2413     0.0000     6.0000 </r>
       <r>   -25.0434     0.0000     6.0000 </r>
       <r>   -24.8456     0.0000     6.0000 </r>
       <r>   -24.6477     0.0000     6.0000 </r>
       <r>   -24.4499     0.0000     6.0000 </r>
       <r>   -24.2520     0.0000     6.0000 </r>
       <r>   -24.0541     0.0000     6.0000 </r>
       <r>   -23.8563     0.0000     6.0000 </r>
       <r>   -23.6584     0.0000     6.0000 </r>
       <r>   -23.4606     0.0000     6.0000 </r>
       <r>   -23.2627     0.0000     6.0000 </r>
       <r>   -23.0649     0.0000     6.0000 </r>
       <r>   -22.8670     0.0000     6.0000 </r>
       <r>   -22.6692     0.0000     6.0000 </r>
       <r>   -22.4713     0.0000     6.0000 </r>
       <r>   -22.2735     0.0000     6.0000 </r>
       <r>   -22.0756     0.0000     6.0000 </r>
       <r>   -21.8778     0.0000     6.0000 </r>
       <r>   -21.6799     0.0000     6.0000 </r>
       <r>   -21.4821     0.0000     6.0000 </r>
       <r>   -21.2842     0.0000     6.0000 </r>
       <r>   -21.0864     0.0000     6.0000 </r>
       <r>   -20.8885     0.0000     6.0000 </r>
       <r>   -20.6907     0.0000     6.0000 </r>
       <r>   -20.4928     0.0000     6.0000 </r>
       <r>   -20.2949     0.0000     6.0000 </r>
       <r>   -20.0971     0.0000     6.0000 </r>
       <r>   -19.8992     0.0000     6.0000 </r>
       <r>   -19.7014     0.0000     6.0000 </r>
       <r>   -19.5035     0.0000     6.0000 </r>
       <r>   -19.3057     0.0000     6.0000 </r>
       <r>   -19.1078     0.0000     6.0000 </r>
       <r>   -18.9100     0.0000     6.0000 </r>
       <r>   -18.7121     0.0000     6.0000 </r>
       <r>   -18.5143     0.0000     6.0000 </r>
       <r>   -18.3164     0.0000     6.0000 </r>
       <r>   -18.1186     0.0000     6.0000 </r>
       <r>   -17.9207     0.0000     6.0000 </r>
       <r>   -17.7229     0.0000     6.0000 </r>
       <r>   -17.5250     0.0000     6.0000 </r>
       <r>   -17.3272     0.0000     6.0000 </r>
       <r>   -17.1293     0.0000     6.0000 </r>
       <r>   -16.9315     0.0000     6.0000 </r>
       <r>   -16.7336     0.0000     6.0000 </r>
       <r>   -16.5357     0.0000     6.0000 </r>
       <r>   -16.3379     0.0000     6.0000 </r>
       <r>   -16.1400     0.0000     6.0000 </r>
       <r>   -15.9422     0.0000     6.0000 </r>
       <r>   -15.7443     0.0000     6.0000 </r>
       <r>   -15.5465     0.0000     6.0000 </r>
       <r>   -15.3486     0.0000     6.0000 </r>
       <r>   -15.1508     0.0000     6.0000 </r>
       <r>   -14.9529     0.0000     6.0000 </r>
       <r>   -14.7551     0.0000     6.0000 </r>
       <r>   -14.5572     0.0000     6.0000 </r>
       <r>   -14.3594     0.0000     6.0000 </r>
       <r>   -14.1615     0.0000     6.0000 </r>
       <r>   -13.9637     0.0000     6.0000 </r>
       <r>   -13.7658     0.0000     6.0000 </r>
       <r>   -13.5680     0.0000     6.0000 </r>
       <r>   -13.3701     0.0000     6.0000 </r>
       <r>   -13.1723     0.0000     6.0000 </r>
       <r>   -12.9744     0.0000     6.0000 </r>
       <r>   -12.7766     0.0000     6.0000 </r>
       <r>   -12.5787     0.0000     6.0000 </r>
       <r>   -12.3808     0.0000     6.0000 </r>
       <r>   -12.1830     0.0000     6.0000 </r>
       <r>   -11.9851     0.0000     6.0000 </r>
       <r>   -11.7873     0.0000     6.0000 </r>
       <r>   -11.5894     0.0000     6.0000 </r>
       <r>   -11.3916     0.0000     6.0000 </r>
       <r>   -11.1937     0.0000     6.0000 </r>
       <r>   -10.9959     0.0000     6.0000 </r>
       <r>   -10.7980     0.0000     6.0000 </r>
       <r>   -10.6002     0.0000     6.0000 </r>
       <r>   -10.4023     0.0000     6.0000 </r>
       <r>   -10.2045     0.0000     6.0000 </r>
       <r>   -10.0066     0.0000     6.0000 </r>
       <r>    -9.8088     0.0000     6.0000 </r>
       <r>    -9.6109     0.0000     6.0000 </r>
       <r>    -9.4131     0.0000     6.0000 </r>
       <r>    -9.2152     0.0000     6.0000 </r>
       <r>    -9.0174     0.0000     6.0000 </r>
       <r>    -8.8195     0.0001     6.0000 </r>
       <r>    -8.6216     0.7297     6.1444 </r>
       <r>    -8.4238     8.4652     7.8193 </r>
       <r>    -8.2259     0.9134     8.0000 </r>
       <r>    -8.0281     0.0002     8.0000 </r>
       <r>    -7.8302     0.0000     8.0000 </r>
       <r>    -7.6324     0.0000     8.0000 </r>
       <r>    -7.4345     0.0000     8.0000 </r>
       <r>    -7.2367     0.0000     8.0000 </r>
       <r>    -7.0388     0.0000     8.0000 </r>
       <r>    -6.8410     0.0000     8.0000 </r>
       <r>    -6.6431     0.0000     8.0000 </r>
       <r>    -6.4453     0.0000     8.0000 </r>
       <r>    -6.2474     0.0000     8.0000 </r>
       <r>    -6.0496     0.0000     8.0000 </r>
       <r>    -5.8517     0.0000     8.0000 </r>
       <r>    -5.6539     0.0000     8.0000 </r>
       <r>    -5.4560     0.0000     8.0000 </r>
       <r>    -5.2582     0.0000     8.0000 </r>
       <r>    -5.0603     0.0000     8.0000 </r>
       <r>    -4.8624     0.0000     8.0000 </r>
       <r>    -4.6646     0.0000     8.0000 </r>
       <r>    -4.4667     0.0000     8.0000 </r>
       <r>    -4.2689     0.0000     8.0000 </r>
       <r>    -4.0710     0.0000     8.0000 </r>
       <r>    -3.8732     0.0000     8.0000 </r>
       <r>    -3.6753     0.0000     8.0000 </r>
       <r>    -3.4775     0.0000     8.0000 </r>
       <r>    -3.2796     0.0000     8.0000 </r>
       <r>    -3.0818     0.0000     8.0000 </r>
       <r>    -2.8839     0.0000     8.0000 </r>
       <r>    -2.6861     0.0000     8.0000 </r>
       <r>    -2.4882     0.0000     8.0000 </r>
       <r>    -2.2904     0.0000     8.0000 </r>
       <r>    -2.0925     0.0000     8.0000 </r>
       <r>    -1.8947     0.0000     8.0000 </r>
       <r>    -1.6968     0.0000     8.0000 </r>
       <r>    -1.4990     0.0000     8.0000 </r>
       <r>    -1.3011     0.0000     8.0000 </r>
       <r>    -1.1032     0.0000     8.0000 </r>
       <r>    -0.9054     0.0000     8.0000 </r>
       <r>    -0.7075     0.0000     8.0000 </r>
       <r>    -0.5097     0.0000     8.0000 </r>
       <r>    -0.3118     0.0000     8.0000 </r>
       <r>    -0.1140     0.0000     8.0000 </r>
       <r>     0.0839     0.0000     8.0000 </r>
       <r>     0.2817     0.0000     8.0000 </r>
       <r>     0.4796     0.0000     8.0000 </r>
       <r>     0.6774     0.0740     8.0146 </r>
       <r>     0.8753     6.3891     9.2787 </r>
       <r>     1.0731     3.6373     9.9984 </r>
       <r>     1.2710     0.0081    10.0000 </r>
       <r>     1.4688     0.0000    10.0000 </r>
       <r>     1.6667     0.0000    10.0000 </r>
       <r>     1.8645     0.0000    10.0000 </r>
       <r>     2.0624     0.0000    10.0000 </r>
       <r>     2.2602     0.0000    10.0000 </r>
       <r>     2.4581     0.1304    10.0258 </r>
       <r>     2.6559    12.4508    12.4892 </r>
       <r>     2.8538     7.6170    13.9963 </r>
       <r>     3.0517     0.0197    14.0002 </r>
       <r>     3.2495     1.6241    14.3215 </r>
       <r>     3.4474     8.1258    15.9292 </r>
       <r>     3.6452     0.3579    16.0000 </r>
       <r>     3.8431     0.0000    16.0000 </r>
       <r>     4.0409     0.0000    16.0000 </r>
       <r>     4.2388     0.0000    16.0000 </r>
       <r>     4.4366     0.0000    16.0000 </r>
       <r>     4.6345     0.0000    16.0000 </r>
       <r>     4.8323     0.0000    16.0000 </r>
       <r>     5.0302     0.0000    16.0000 </r>
       <r>     5.2280     0.0000    16.0000 </r>
       <r>     5.4259     0.0000    16.0000 </r>
       <r>     5.6237     0.0000    16.0000 </r>
       <r>     5.8216     0.0000    16.0000 </r>
       <r>     6.0194     0.0000    16.0000 </r>
       <r>     6.2173     0.0000    16.0000 </r>
       <r>     6.4151     0.0000    16.0000 </r>
       <r>     6.6130     0.0000    16.0000 </r>
       <r>     6.8109     0.0000    16.0000 </r>
       <r>     7.0087     0.0000    16.0000 </r>
       <r>     7.2066     0.0000    16.0000 </r>
       <r>     7.4044     0.0000    16.0000 </r>
       <r>     7.6023     0.0000    16.0000 </r>
       <r>     7.8001     0.0000    16.0000 </r>
       <r>     7.9980     0.0000    16.0000 </r>
       <r>     8.1958     0.0000    16.0000 </r>
       <r>     8.3937     0.0000    16.0000 </r>
       <r>     8.5915     0.0000    16.0000 </r>
       <r>     8.7894     0.0000    16.0000 </r>
       <r>     8.9872     0.0000    16.0000 </r>
       <r>     9.1851     0.0060    16.0012 </r>
       <r>     9.3829     5.2861    17.0471 </r>
       <r>     9.5808    14.6140    19.9385 </r>
       <r>     9.7786     0.3110    20.0000 </r>
       <r>     9.9765     0.0000    20.0000 </r>
       <r>    10.1743     0.0007    20.0001 </r>
       <r>    10.3722     1.5607    20.3089 </r>
       <r>    10.5701     8.1682    21.9250 </r>
       <r>    10.7679     0.3789    22.0000 </r>
       <r>    10.9658     0.0000    22.0000 </r>
       <r>    11.1636     0.0000    22.0000 </r>
       <r>    11.3615     0.0000    22.0000 </r>
       <r>    11.5593     0.0000    22.0000 </r>
       <r>    11.7572     0.0000    22.0000 </r>
       <r>    11.9550     0.0000    22.0000 </r>
       <r>    12.1529     0.0000    22.0000 </r>
       <r>    12.3507     0.0000    22.0000 </r>
       <r>    12.5486     0.0000    22.0000 </r>
       <r>    12.7464     0.0000    22.0000 </r>
       <r>    12.9443     0.0000    22.0000 </r>
       <r>    13.1421     0.0000    22.0000 </r>
      </set>
     </set>
    </array>
   </total>
  </dos>
 </calculation>
 <structure name="finalpos" >
  <crystal>
   <varray name="basis" >
    <v>       3.60972740       0.00000000       0.00000000 </v>
    <v>      -1.80486370       3.12611563       0.00000000 </v>
    <v>       0.00000000       0.00000000       3.85463861 </v>
   </varray>
   <i name="volume">     43.49738124 </i>
   <varray name="rec_basis" >
    <v>       0.27702923       0.15994290      -0.00000000 </v>
    <v>       0.00000000       0.31988580       0.00000000 </v>
    <v>       0.00000000      -0.00000000       0.25942769 </v>
   </varray>
  </crystal>
  <varray name="positions" >
   <v>       0.33333333       0.66666667       0.00000000 </v>
   <v>       0.66666667       0.33333333       0.00000000 </v>
   <v>       0.00000000       0.00000000       0.50000000 </v>
   <v>       0.00000000       0.00000000       0.00000000 </v>
  </varray>
 </structure>
</modeling>
