unknown system                          
            1
     3.609727    0.000000    0.000000
    -1.804864    3.126116    0.000000
     0.000000    0.000000    3.854639
   Li   N 
     3     1
Direct configuration=     1
   0.33333333  0.66666667  0.00000000
   0.66666667  0.33333333  0.00000000
   0.00000000  0.00000000  0.50000000
   0.00000000  0.00000000  0.00000000
