       N       E                     dE             d eps       ncg     rms          rms(c)
DAV:   1     0.990830029820E+03    0.99083E+03   -0.10814E+05   256   0.150E+03
DAV:   2    -0.253549865807E+03   -0.12444E+04   -0.12444E+04   384   0.274E+02
DAV:   3    -0.275903816166E+03   -0.22354E+02   -0.22354E+02   256   0.572E+01
DAV:   4    -0.276426953083E+03   -0.52314E+00   -0.52314E+00   512   0.601E+00
DAV:   5    -0.276427141407E+03   -0.18832E-03   -0.18833E-03   256   0.133E-01    0.631E+01
DAV:   6    -0.213960549784E+03    0.62467E+02   -0.62838E+02   512   0.885E+01    0.287E+01
DAV:   7    -0.209625376748E+03    0.43352E+01   -0.14047E+02   512   0.305E+01    0.188E+01
DAV:   8    -0.207886596150E+03    0.17388E+01   -0.36839E+01   512   0.171E+01    0.877E+00
DAV:   9    -0.207699481173E+03    0.18711E+00   -0.10547E+01   512   0.975E+00    0.718E+00
DAV:  10    -0.207240772602E+03    0.45871E+00   -0.73484E+00   512   0.701E+00    0.369E+00
DAV:  11    -0.207101196225E+03    0.13958E+00   -0.15069E+00   512   0.386E+00    0.153E+00
DAV:  12    -0.207087890715E+03    0.13306E-01   -0.40176E-01   512   0.218E+00    0.105E+00
DAV:  13    -0.207084600250E+03    0.32905E-02   -0.11401E-01   512   0.119E+00    0.513E-01
DAV:  14    -0.207086668772E+03   -0.20685E-02   -0.52585E-02   512   0.693E-01    0.447E-01
DAV:  15    -0.207086197837E+03    0.47093E-03   -0.39570E-02   512   0.565E-01    0.288E-01
DAV:  16    -0.207086031666E+03    0.16617E-03   -0.14093E-02   512   0.297E-01    0.153E-01
DAV:  17    -0.207085890649E+03    0.14102E-03   -0.35167E-03   512   0.159E-01    0.630E-02
DAV:  18    -0.207085923807E+03   -0.33158E-04   -0.33174E-04   512   0.566E-02    0.329E-02
DAV:  19    -0.207085941198E+03   -0.17391E-04   -0.18545E-04   512   0.466E-02    0.197E-02
DAV:  20    -0.207085941566E+03   -0.36796E-06   -0.34054E-05   512   0.183E-02
      1 T=   306. E= -.20613683E+03 F= -.20708594E+03 E0= -.20705691E+03  EK= 0.94911E+00 SP= 0.00E+00 SK= 0.00E+00
       N       E                     dE             d eps       ncg     rms          rms(c)
DAV:   1    -0.207263619086E+03   -0.17768E+00   -0.53749E+00   256   0.101E+01    0.393E-01
DAV:   2    -0.207270602616E+03   -0.69835E-02   -0.11115E-01   512   0.129E+00    0.363E-01
DAV:   3    -0.207270806801E+03   -0.20419E-03   -0.29939E-02   512   0.498E-01    0.401E-01
DAV:   4    -0.207270038617E+03    0.76818E-03   -0.28457E-02   512   0.389E-01    0.298E-01
DAV:   5    -0.207269512358E+03    0.52626E-03   -0.11366E-02   512   0.312E-01    0.150E-01
DAV:   6    -0.207269378148E+03    0.13421E-03   -0.41548E-03   512   0.188E-01    0.978E-02
DAV:   7    -0.207269298092E+03    0.80056E-04   -0.15428E-03   512   0.119E-01    0.428E-02
DAV:   8    -0.207269281101E+03    0.16991E-04   -0.24324E-04   512   0.492E-02    0.184E-02
DAV:   9    -0.207269278999E+03    0.21020E-05   -0.36919E-05   512   0.217E-02
      2 T=   358. E= -.20615691E+03 F= -.20726928E+03 E0= -.20724013E+03  EK= 0.11116E+01 SP= 0.69E-03 SK= 0.42E-04
       N       E                     dE             d eps       ncg     rms          rms(c)
DAV:   1    -0.207716696372E+03   -0.44742E+00   -0.75912E+00   256   0.117E+01    0.491E-01
DAV:   2    -0.207726580628E+03   -0.98843E-02   -0.16356E-01   512   0.150E+00    0.474E-01
DAV:   3    -0.207727376519E+03   -0.79589E-03   -0.59703E-02   512   0.656E-01    0.570E-01
DAV:   4    -0.207725366423E+03    0.20101E-02   -0.44974E-02   512   0.499E-01    0.302E-01
DAV:   5    -0.207724879586E+03    0.48684E-03   -0.12927E-02   512   0.372E-01    0.180E-01
DAV:   6    -0.207724689887E+03    0.18970E-03   -0.59869E-03   512   0.248E-01    0.122E-01
DAV:   7    -0.207724582246E+03    0.10764E-03   -0.24608E-03   512   0.137E-01    0.535E-02
DAV:   8    -0.207724555392E+03    0.26854E-04   -0.37103E-04   512   0.563E-02    0.204E-02
DAV:   9    -0.207724553756E+03    0.16359E-05   -0.56146E-05   512   0.276E-02
      3 T=   501. E= -.20616230E+03 F= -.20772455E+03 E0= -.20769523E+03  EK= 0.15530E+01 SP= 0.68E-02 SK= 0.25E-02
       N       E                     dE             d eps       ncg     rms          rms(c)
DAV:   1    -0.208375251313E+03   -0.65070E+00   -0.11619E+01   256   0.138E+01    0.615E-01
DAV:   2    -0.208389136202E+03   -0.13885E-01   -0.24229E-01   512   0.177E+00    0.606E-01
DAV:   3    -0.208390367692E+03   -0.12315E-02   -0.10125E-01   512   0.850E-01    0.719E-01
DAV:   4    -0.208386993776E+03    0.33739E-02   -0.67260E-02   512   0.613E-01    0.355E-01
DAV:   5    -0.208386653343E+03    0.34043E-03   -0.22555E-02   512   0.456E-01    0.276E-01
DAV:   6    -0.208386054277E+03    0.59907E-03   -0.11463E-02   512   0.330E-01    0.135E-01
DAV:   7    -0.208385918408E+03    0.13587E-03   -0.30941E-03   512   0.170E-01    0.569E-02
DAV:   8    -0.208385888223E+03    0.30185E-04   -0.43098E-04   512   0.702E-02    0.213E-02
DAV:   9    -0.208385887791E+03    0.43205E-06   -0.61911E-05   512   0.301E-02
      4 T=   697. E= -.20617101E+03 F= -.20838589E+03 E0= -.20835632E+03  EK= 0.21612E+01 SP= 0.29E-01 SK= 0.25E-01
       N       E                     dE             d eps       ncg     rms          rms(c)
DAV:   1    -0.209154187705E+03   -0.76830E+00   -0.16310E+01   256   0.158E+01    0.729E-01
DAV:   2    -0.209172213566E+03   -0.18026E-01   -0.32956E-01   512   0.203E+00    0.726E-01
DAV:   3    -0.209173471605E+03   -0.12580E-02   -0.14347E-01   512   0.971E-01    0.819E-01
DAV:   4    -0.209168821883E+03    0.46497E-02   -0.86020E-02   512   0.730E-01    0.405E-01
DAV:   5    -0.209168670677E+03    0.15121E-03   -0.34017E-02   512   0.511E-01    0.360E-01
DAV:   6    -0.209167548650E+03    0.11220E-02   -0.16329E-02   512   0.387E-01    0.132E-01
DAV:   7    -0.209167426496E+03    0.12215E-03   -0.32023E-03   512   0.184E-01    0.638E-02
DAV:   8    -0.209167387504E+03    0.38992E-04   -0.56861E-04   512   0.869E-02    0.236E-02
DAV:   9    -0.209167386313E+03    0.11910E-05   -0.65445E-05   512   0.304E-02
      5 T=   899. E= -.20618092E+03 F= -.20916739E+03 E0= -.20913749E+03  EK= 0.27893E+01 SP= 0.82E-01 SK= 0.11E+00
       N       E                     dE             d eps       ncg     rms          rms(c)
DAV:   1    -0.209967700971E+03   -0.80031E+00   -0.20322E+01   256   0.173E+01    0.815E-01
DAV:   2    -0.209988881587E+03   -0.21181E-01   -0.40121E-01   512   0.223E+00    0.818E-01
DAV:   3    -0.209989764108E+03   -0.88252E-03   -0.17653E-01   512   0.112E+00    0.871E-01
DAV:   4    -0.209983891295E+03    0.58728E-02   -0.92238E-02   512   0.806E-01    0.394E-01
DAV:   5    -0.209984524140E+03   -0.63285E-03   -0.42345E-02   512   0.566E-01    0.471E-01
DAV:   6    -0.209982691230E+03    0.18329E-02   -0.24780E-02   512   0.460E-01    0.137E-01
DAV:   7    -0.209982553590E+03    0.13764E-03   -0.30662E-03   512   0.187E-01    0.643E-02
DAV:   8    -0.209982512192E+03    0.41397E-04   -0.62753E-04   512   0.969E-02    0.266E-02
DAV:   9    -0.209982508969E+03    0.32236E-05   -0.82269E-05   512   0.356E-02
      6 T=  1053. E= -.20618687E+03 F= -.20998251E+03 E0= -.20995222E+03  EK= 0.32676E+01 SP= 0.18E+00 SK= 0.35E+00
       N       E                     dE             d eps       ncg     rms          rms(c)
DAV:   1    -0.210743588340E+03   -0.76108E+00   -0.22542E+01   256   0.181E+01    0.860E-01
DAV:   2    -0.210766042909E+03   -0.22455E-01   -0.43650E-01   512   0.232E+00    0.875E-01
DAV:   3    -0.210766456584E+03   -0.41368E-03   -0.19597E-01   512   0.115E+00    0.904E-01
DAV:   4    -0.210759595612E+03    0.68610E-02   -0.89011E-02   512   0.857E-01    0.325E-01
DAV:   5    -0.210759689731E+03   -0.94119E-04   -0.23952E-02   512   0.448E-01    0.383E-01
DAV:   6    -0.210758936031E+03    0.75370E-03   -0.22329E-02   512   0.384E-01    0.213E-01
DAV:   7    -0.210758628697E+03    0.30733E-03   -0.47904E-03   512   0.202E-01    0.602E-02
DAV:   8    -0.210758582034E+03    0.46663E-04   -0.59588E-04   512   0.991E-02    0.266E-02
DAV:   9    -0.210758578843E+03    0.31912E-05   -0.94094E-05   512   0.401E-02
      7 T=  1117. E= -.20618338E+03 F= -.21075858E+03 E0= -.21072785E+03  EK= 0.34638E+01 SP= 0.34E+00 SK= 0.77E+00
       N       E                     dE             d eps       ncg     rms          rms(c)
DAV:   1    -0.211433356986E+03   -0.67477E+00   -0.22517E+01   256   0.180E+01    0.864E-01
DAV:   2    -0.211455146288E+03   -0.21789E-01   -0.43067E-01   512   0.228E+00    0.894E-01
DAV:   3    -0.211455356124E+03   -0.20984E-03   -0.20220E-01   512   0.117E+00    0.938E-01
DAV:   4    -0.211448364925E+03    0.69912E-02   -0.90528E-02   512   0.877E-01    0.320E-01
DAV:   5    -0.211449438728E+03   -0.10738E-02   -0.35748E-02   512   0.533E-01    0.526E-01
DAV:   6    -0.211447518671E+03    0.19201E-02   -0.30684E-02   512   0.425E-01    0.157E-01
DAV:   7    -0.211447328683E+03    0.18999E-03   -0.32163E-03   512   0.157E-01    0.560E-02
DAV:   8    -0.211447297955E+03    0.30728E-04   -0.42773E-04   512   0.808E-02    0.255E-02
DAV:   9    -0.211447294936E+03    0.30187E-05   -0.92861E-05   512   0.417E-02
      8 T=  1077. E= -.20617124E+03 F= -.21144729E+03 E0= -.21141611E+03  EK= 0.33419E+01 SP= 0.56E+00 SK= 0.14E+01
       N       E                     dE             d eps       ncg     rms          rms(c)
DAV:   1    -0.212011358080E+03   -0.56406E+00   -0.20544E+01   256   0.172E+01    0.832E-01
DAV:   2    -0.212031131189E+03   -0.19773E-01   -0.39322E-01   512   0.216E+00    0.877E-01
DAV:   3    -0.212031417672E+03   -0.28648E-03   -0.19523E-01   512   0.113E+00    0.957E-01
DAV:   4    -0.212024988439E+03    0.64292E-02   -0.94025E-02   512   0.820E-01    0.370E-01
DAV:   5    -0.212026121839E+03   -0.11334E-02   -0.48845E-02   512   0.594E-01    0.549E-01
DAV:   6    -0.212023744581E+03    0.23773E-02   -0.28429E-02   512   0.418E-01    0.107E-01
DAV:   7    -0.212023646732E+03    0.97849E-04   -0.17265E-03   512   0.141E-01    0.528E-02
DAV:   8    -0.212023626332E+03    0.20400E-04   -0.38964E-04   512   0.792E-02    0.282E-02
DAV:   9    -0.212023621517E+03    0.48151E-05   -0.11565E-04   512   0.411E-02    0.137E-02
DAV:  10    -0.212023622060E+03   -0.54308E-06   -0.25154E-05   512   0.219E-02
      9 T=   957. E= -.20615670E+03 F= -.21202362E+03 E0= -.21199200E+03  EK= 0.29689E+01 SP= 0.84E+00 SK= 0.21E+01
       N       E                     dE             d eps       ncg     rms          rms(c)
DAV:   1    -0.212471333075E+03   -0.44771E+00   -0.17383E+01   256   0.158E+01    0.771E-01
DAV:   2    -0.212488309645E+03   -0.16977E-01   -0.33755E-01   512   0.199E+00    0.834E-01
DAV:   3    -0.212488616013E+03   -0.30637E-03   -0.17698E-01   512   0.108E+00    0.948E-01
DAV:   4    -0.212482975281E+03    0.56407E-02   -0.92266E-02   512   0.756E-01    0.386E-01
DAV:   5    -0.212483401562E+03   -0.42628E-03   -0.42917E-02   512   0.545E-01    0.471E-01
DAV:   6    -0.212481631071E+03    0.17705E-02   -0.21243E-02   512   0.381E-01    0.100E-01
DAV:   7    -0.212481560437E+03    0.70635E-04   -0.16685E-03   512   0.153E-01    0.553E-02
DAV:   8    -0.212481534337E+03    0.26100E-04   -0.43535E-04   512   0.861E-02    0.265E-02
DAV:   9    -0.212481529902E+03    0.44341E-05   -0.92635E-05   512   0.368E-02
     10 T=   795. E= -.20614549E+03 F= -.21248153E+03 E0= -.21244950E+03  EK= 0.24659E+01 SP= 0.12E+01 SK= 0.27E+01
       N       E                     dE             d eps       ncg     rms          rms(c)
DAV:   1    -0.212824837339E+03   -0.34330E+00   -0.13888E+01   256   0.142E+01    0.694E-01
DAV:   2    -0.212838722292E+03   -0.13885E-01   -0.27466E-01   512   0.179E+00    0.774E-01
DAV:   3    -0.212838998170E+03   -0.27588E-03   -0.15151E-01   512   0.988E-01    0.893E-01
DAV:   4    -0.212834190084E+03    0.48081E-02   -0.80146E-02   512   0.688E-01    0.352E-01
DAV:   5    -0.212834453368E+03   -0.26328E-03   -0.34225E-02   512   0.488E-01    0.415E-01
DAV:   6    -0.212833087133E+03    0.13662E-02   -0.17480E-02   512   0.345E-01    0.102E-01
DAV:   7    -0.212833012603E+03    0.74531E-04   -0.17890E-03   512   0.163E-01    0.548E-02
DAV:   8    -0.212832984525E+03    0.28077E-04   -0.39515E-04   512   0.801E-02    0.230E-02
DAV:   9    -0.212832981740E+03    0.27857E-05   -0.71674E-05   512   0.318E-02
     11 T=   628. E= -.20614058E+03 F= -.21283298E+03 E0= -.21280060E+03  EK= 0.19489E+01 SP= 0.15E+01 SK= 0.32E+01
       N       E                     dE             d eps       ncg     rms          rms(c)
DAV:   1    -0.213091948218E+03   -0.25896E+00   -0.10663E+01   256   0.125E+01    0.614E-01
DAV:   2    -0.213102935521E+03   -0.10987E-01   -0.21622E-01   512   0.159E+00    0.712E-01
DAV:   3    -0.213103001107E+03   -0.65586E-04   -0.12507E-01   512   0.894E-01    0.809E-01
DAV:   4    -0.213099058079E+03    0.39430E-02   -0.63963E-02   512   0.602E-01    0.299E-01
DAV:   5    -0.213099349265E+03   -0.29119E-03   -0.25655E-02   512   0.438E-01    0.368E-01
DAV:   6    -0.213098278759E+03    0.10705E-02   -0.14761E-02   512   0.327E-01    0.102E-01
DAV:   7    -0.213098198007E+03    0.80752E-04   -0.17357E-03   512   0.156E-01    0.514E-02
DAV:   8    -0.213098172987E+03    0.25021E-04   -0.32394E-04   512   0.706E-02    0.203E-02
DAV:   9    -0.213098171212E+03    0.17748E-05   -0.61881E-05   512   0.300E-02
     12 T=   481. E= -.20614078E+03 F= -.21309817E+03 E0= -.21306548E+03  EK= 0.14915E+01 SP= 0.19E+01 SK= 0.35E+01
     13 T=   364. E= -.20615048E+03 F= -.21330969E+03 E0= -.21330969E+03  EK= 0.11277E+01 SP= 0.23E+01 SK= 0.37E+01
     14 T=   276. E= -.20615378E+03 F= -.21347582E+03 E0= -.21347582E+03  EK= 0.85688E+00 SP= 0.27E+01 SK= 0.37E+01
     15 T=   213. E= -.20615678E+03 F= -.21361109E+03 E0= -.21361109E+03  EK= 0.65948E+00 SP= 0.32E+01 SK= 0.36E+01
     16 T=   167. E= -.20615917E+03 F= -.21372555E+03 E0= -.21372555E+03  EK= 0.51931E+00 SP= 0.36E+01 SK= 0.35E+01
     17 T=   136. E= -.20616094E+03 F= -.21382650E+03 E0= -.21382650E+03  EK= 0.42187E+00 SP= 0.40E+01 SK= 0.33E+01
     18 T=   115. E= -.20616220E+03 F= -.21391918E+03 E0= -.21391918E+03  EK= 0.35574E+00 SP= 0.43E+01 SK= 0.31E+01
     19 T=   101. E= -.20616308E+03 F= -.21400746E+03 E0= -.21400746E+03  EK= 0.31252E+00 SP= 0.47E+01 SK= 0.28E+01
     20 T=    92. E= -.20616367E+03 F= -.21409432E+03 E0= -.21409432E+03  EK= 0.28639E+00 SP= 0.51E+01 SK= 0.26E+01
     21 T=    88. E= -.20616406E+03 F= -.21418230E+03 E0= -.21418230E+03  EK= 0.27350E+00 SP= 0.54E+01 SK= 0.23E+01
       N       E                     dE             d eps       ncg     rms          rms(c)
DAV:   1    -0.213804460829E+03   -0.70629E+00   -0.28791E+02   256   0.652E+01
DAV:   2    -0.214191566304E+03   -0.38711E+00   -0.38711E+00   256   0.709E+00
DAV:   3    -0.214195150664E+03   -0.35844E-02   -0.35844E-02   512   0.607E-01
DAV:   4    -0.214195151545E+03   -0.88185E-06   -0.88103E-06   256   0.941E-03    0.354E+00
DAV:   5    -0.214168118712E+03    0.27033E-01   -0.31661E+00   512   0.598E+00    0.349E+00
DAV:   6    -0.214068329892E+03    0.99789E-01   -0.21453E+00   512   0.410E+00    0.273E+00
DAV:   7    -0.214047002558E+03    0.21327E-01   -0.14885E+00   512   0.335E+00    0.189E+00
DAV:   8    -0.214029699660E+03    0.17303E-01   -0.63537E-01   512   0.243E+00    0.165E+00
DAV:   9    -0.214013099062E+03    0.16601E-01   -0.43806E-01   512   0.193E+00    0.882E-01
DAV:  10    -0.214006238789E+03    0.68603E-02   -0.10659E-01   512   0.102E+00    0.369E-01
DAV:  11    -0.214005119883E+03    0.11189E-02   -0.21031E-02   512   0.559E-01    0.206E-01
DAV:  12    -0.214005023528E+03    0.96355E-04   -0.85163E-03   512   0.332E-01    0.135E-01
DAV:  13    -0.214004828394E+03    0.19513E-03   -0.16905E-03   512   0.148E-01    0.423E-02
DAV:  14    -0.214004816181E+03    0.12212E-04   -0.17560E-04   512   0.504E-02    0.111E-02
DAV:  15    -0.214004818665E+03   -0.24836E-05   -0.19393E-05   512   0.205E-02
     22 T=    80. E= -.20591840E+03 F= -.21400482E+03 E0= -.21397042E+03  EK= 0.24849E+00 SP= 0.57E+01 SK= 0.21E+01
     23 T=    70. E= -.20600706E+03 F= -.21413540E+03 E0= -.21413540E+03  EK= 0.21597E+00 SP= 0.60E+01 SK= 0.19E+01
     24 T=    63. E= -.20600733E+03 F= -.21417874E+03 E0= -.21417874E+03  EK= 0.19606E+00 SP= 0.63E+01 SK= 0.17E+01
     25 T=    59. E= -.20600751E+03 F= -.21421869E+03 E0= -.21421869E+03  EK= 0.18169E+00 SP= 0.66E+01 SK= 0.15E+01
     26 T=    55. E= -.20600763E+03 F= -.21425554E+03 E0= -.21425554E+03  EK= 0.17128E+00 SP= 0.68E+01 SK= 0.13E+01
     27 T=    53. E= -.20600771E+03 F= -.21428952E+03 E0= -.21428952E+03  EK= 0.16376E+00 SP= 0.71E+01 SK= 0.11E+01
     28 T=    51. E= -.20600776E+03 F= -.21432084E+03 E0= -.21432084E+03  EK= 0.15845E+00 SP= 0.73E+01 SK= 0.89E+00
     29 T=    50. E= -.20600779E+03 F= -.21434971E+03 E0= -.21434971E+03  EK= 0.15491E+00 SP= 0.75E+01 SK= 0.73E+00
     30 T=    49. E= -.20600780E+03 F= -.21437636E+03 E0= -.21437636E+03  EK= 0.15289E+00 SP= 0.76E+01 SK= 0.58E+00
     31 T=    49. E= -.20600781E+03 F= -.21440104E+03 E0= -.21440104E+03  EK= 0.15230E+00 SP= 0.78E+01 SK= 0.46E+00
       N       E                     dE             d eps       ncg     rms          rms(c)
DAV:   1    -0.214167546624E+03   -0.16273E+00   -0.11800E+02   256   0.354E+01
DAV:   2    -0.214300013173E+03   -0.13247E+00   -0.13247E+00   256   0.393E+00
DAV:   3    -0.214301228610E+03   -0.12154E-02   -0.12154E-02   512   0.329E-01
DAV:   4    -0.214301228940E+03   -0.32978E-06   -0.32944E-06   256   0.519E-03    0.226E+00
DAV:   5    -0.214296828983E+03    0.44000E-02   -0.84594E-01   512   0.340E+00    0.253E+00
DAV:   6    -0.214280529249E+03    0.16300E-01   -0.11535E+00   512   0.260E+00    0.226E+00
DAV:   7    -0.214261477216E+03    0.19052E-01   -0.75347E-01   512   0.235E+00    0.124E+00
DAV:   8    -0.214252568986E+03    0.89082E-02   -0.27362E-01   512   0.167E+00    0.101E+00
DAV:   9    -0.214245991669E+03    0.65773E-02   -0.16156E-01   512   0.118E+00    0.490E-01
DAV:  10    -0.214243699775E+03    0.22919E-02   -0.26633E-02   512   0.517E-01    0.147E-01
DAV:  11    -0.214243507766E+03    0.19201E-03   -0.30811E-03   512   0.242E-01    0.966E-02
DAV:  12    -0.214243470681E+03    0.37085E-04   -0.17460E-03   512   0.175E-01    0.560E-02
DAV:  13    -0.214243433428E+03    0.37253E-04   -0.32947E-04   512   0.810E-02    0.206E-02
DAV:  14    -0.214243430626E+03    0.28014E-05   -0.68924E-05   512   0.397E-02
     32 T=    47. E= -.20583351E+03 F= -.21424343E+03 E0= -.21420830E+03  EK= 0.14685E+00 SP= 0.79E+01 SK= 0.34E+00
     33 T=    46. E= -.20601933E+03 F= -.21444327E+03 E0= -.21444327E+03  EK= 0.14319E+00 SP= 0.80E+01 SK= 0.24E+00
     34 T=    47. E= -.20601931E+03 F= -.21446150E+03 E0= -.21446150E+03  EK= 0.14648E+00 SP= 0.81E+01 SK= 0.16E+00
     35 T=    49. E= -.20601928E+03 F= -.21447906E+03 E0= -.21447906E+03  EK= 0.15177E+00 SP= 0.82E+01 SK= 0.99E-01
       N       E                     dE             d eps       ncg     rms          rms(c)
DAV:   1    -0.214252083012E+03   -0.86496E-02   -0.17069E+01   256   0.139E+01
DAV:   2    -0.214269520289E+03   -0.17437E-01   -0.17437E-01   256   0.150E+00
DAV:   3    -0.214269667102E+03   -0.14681E-03   -0.14681E-03   512   0.126E-01
DAV:   4    -0.214269667136E+03   -0.34508E-07   -0.34207E-07   256   0.194E-03    0.682E-01
DAV:   5    -0.214268555615E+03    0.11115E-02   -0.77352E-02   512   0.943E-01    0.797E-01
DAV:   6    -0.214266256482E+03    0.22991E-02   -0.11943E-01   512   0.990E-01    0.634E-01
DAV:   7    -0.214268364958E+03   -0.21085E-02   -0.96155E-02   512   0.845E-01    0.868E-01
DAV:   8    -0.214263827230E+03    0.45377E-02   -0.66381E-02   512   0.610E-01    0.212E-01
DAV:   9    -0.214263263384E+03    0.56385E-03   -0.75668E-03   512   0.338E-01    0.941E-02
DAV:  10    -0.214263190710E+03    0.72674E-04   -0.91772E-04   512   0.121E-01    0.300E-02
DAV:  11    -0.214263190590E+03    0.11983E-06   -0.15030E-04   512   0.583E-02    0.230E-02
DAV:  12    -0.214263185946E+03    0.46443E-05   -0.74821E-05   512   0.383E-02
     36 T=    49. E= -.20579444E+03 F= -.21426319E+03 E0= -.21422799E+03  EK= 0.15110E+00 SP= 0.83E+01 SK= 0.50E-01
     37 T=    48. E= -.20589879E+03 F= -.21437191E+03 E0= -.21437191E+03  EK= 0.14935E+00 SP= 0.83E+01 SK= 0.18E-01
     38 T=    50. E= -.20589876E+03 F= -.21438057E+03 E0= -.21438057E+03  EK= 0.15490E+00 SP= 0.83E+01 SK= 0.20E-02
     39 T=    53. E= -.20589871E+03 F= -.21439086E+03 E0= -.21439086E+03  EK= 0.16522E+00 SP= 0.83E+01 SK= 0.19E-02
     40 T=    58. E= -.20589863E+03 F= -.21440285E+03 E0= -.21440285E+03  EK= 0.18077E+00 SP= 0.83E+01 SK= 0.17E-01
     41 T=    65. E= -.20589852E+03 F= -.21441654E+03 E0= -.21441654E+03  EK= 0.20220E+00 SP= 0.83E+01 SK= 0.47E-01
     42 T=    74. E= -.20589836E+03 F= -.21443182E+03 E0= -.21443182E+03  EK= 0.23040E+00 SP= 0.82E+01 SK= 0.89E-01
     43 T=    86. E= -.20589816E+03 F= -.21444853E+03 E0= -.21444853E+03  EK= 0.26655E+00 SP= 0.81E+01 SK= 0.14E+00
     44 T=   101. E= -.20589790E+03 F= -.21446644E+03 E0= -.21446644E+03  EK= 0.31218E+00 SP= 0.81E+01 SK= 0.20E+00
     45 T=   119. E= -.20589756E+03 F= -.21448525E+03 E0= -.21448525E+03  EK= 0.36919E+00 SP= 0.79E+01 SK= 0.27E+00
       N       E                     dE             d eps       ncg     rms          rms(c)
DAV:   1    -0.214180973621E+03    0.82217E-01   -0.14921E+02   256   0.414E+01
DAV:   2    -0.214349698144E+03   -0.16872E+00   -0.16872E+00   256   0.451E+00
DAV:   3    -0.214351136230E+03   -0.14381E-02   -0.14381E-02   512   0.377E-01
DAV:   4    -0.214351136538E+03   -0.30801E-06   -0.30741E-06   256   0.559E-03    0.206E+00
DAV:   5    -0.214409655015E+03   -0.58518E-01   -0.20609E+00   512   0.504E+00    0.323E+00
DAV:   6    -0.214299364460E+03    0.11029E+00   -0.12088E+00   512   0.277E+00    0.123E+00
DAV:   7    -0.214295222412E+03    0.41420E-02   -0.27275E-01   512   0.199E+00    0.962E-01
DAV:   8    -0.214303589954E+03   -0.83675E-02   -0.33966E-01   512   0.158E+00    0.156E+00
DAV:   9    -0.214287198879E+03    0.16391E-01   -0.22485E-01   512   0.127E+00    0.298E-01
DAV:  10    -0.214286066851E+03    0.11320E-02   -0.99566E-03   512   0.295E-01    0.123E-01
DAV:  11    -0.214286017555E+03    0.49295E-04   -0.27211E-03   512   0.216E-01    0.881E-02
DAV:  12    -0.214285941787E+03    0.75768E-04   -0.80966E-04   512   0.116E-01    0.275E-02
DAV:  13    -0.214285936459E+03    0.53276E-05   -0.13888E-04   512   0.531E-02    0.155E-02
DAV:  14    -0.214285935171E+03    0.12889E-05   -0.30236E-05   512   0.242E-02
     46 T=   137. E= -.20569190E+03 F= -.21428594E+03 E0= -.21425136E+03  EK= 0.42646E+00 SP= 0.78E+01 SK= 0.34E+00
     47 T=   160. E= -.20592158E+03 F= -.21452210E+03 E0= -.21452210E+03  EK= 0.49636E+00 SP= 0.77E+01 SK= 0.40E+00
     48 T=   192. E= -.20592106E+03 F= -.21453887E+03 E0= -.21453887E+03  EK= 0.59589E+00 SP= 0.76E+01 SK= 0.46E+00
     49 T=   231. E= -.20592051E+03 F= -.21455436E+03 E0= -.21455436E+03  EK= 0.71656E+00 SP= 0.74E+01 SK= 0.51E+00
       N       E                     dE             d eps       ncg     rms          rms(c)
DAV:   1    -0.214165968839E+03    0.11997E+00   -0.69847E+01   256   0.278E+01
DAV:   2    -0.214240377839E+03   -0.74409E-01   -0.74409E-01   256   0.306E+00
DAV:   3    -0.214241065228E+03   -0.68739E-03   -0.68739E-03   512   0.256E-01
DAV:   4    -0.214241065330E+03   -0.10225E-06   -0.10236E-06   256   0.383E-03    0.167E+00
DAV:   5    -0.214294487961E+03   -0.53423E-01   -0.14710E+00   512   0.393E+00    0.283E+00
DAV:   6    -0.214216541297E+03    0.77947E-01   -0.90377E-01   512   0.234E+00    0.117E+00
DAV:   7    -0.214218502685E+03   -0.19614E-02   -0.34035E-01   512   0.196E+00    0.128E+00
DAV:   8    -0.214216860295E+03    0.16424E-02   -0.32835E-01   512   0.155E+00    0.128E+00
DAV:   9    -0.214205959218E+03    0.10901E-01   -0.17613E-01   512   0.122E+00    0.347E-01
DAV:  10    -0.214204561482E+03    0.13977E-02   -0.13554E-02   512   0.447E-01    0.149E-01
DAV:  11    -0.214204383399E+03    0.17808E-03   -0.24379E-03   512   0.189E-01    0.502E-02
DAV:  12    -0.214204370367E+03    0.13033E-04   -0.27801E-04   512   0.728E-02    0.287E-02
DAV:  13    -0.214204365572E+03    0.47947E-05   -0.10603E-04   512   0.427E-02    0.147E-02
DAV:  14    -0.214204363915E+03    0.16572E-05   -0.28335E-05   512   0.207E-02
     50 T=   269. E= -.20558358E+03 F= -.21420436E+03 E0= -.21416990E+03  EK= 0.83376E+00 SP= 0.73E+01 SK= 0.53E+00
     51 T=   303. E= -.20573371E+03 F= -.21431093E+03 E0= -.21431093E+03  EK= 0.93945E+00 SP= 0.71E+01 SK= 0.54E+00
     52 T=   339. E= -.20573384E+03 F= -.21425578E+03 E0= -.21425578E+03  EK= 0.10518E+01 SP= 0.69E+01 SK= 0.53E+00
     53 T=   376. E= -.20573402E+03 F= -.21418745E+03 E0= -.21418745E+03  EK= 0.11666E+01 SP= 0.68E+01 SK= 0.50E+00
     54 T=   413. E= -.20573423E+03 F= -.21410783E+03 E0= -.21410783E+03  EK= 0.12813E+01 SP= 0.66E+01 SK= 0.45E+00
     55 T=   449. E= -.20573446E+03 F= -.21402081E+03 E0= -.21402081E+03  EK= 0.13943E+01 SP= 0.65E+01 SK= 0.39E+00
     56 T=   485. E= -.20573475E+03 F= -.21393199E+03 E0= -.21393199E+03  EK= 0.15041E+01 SP= 0.64E+01 SK= 0.32E+00
     57 T=   519. E= -.20573516E+03 F= -.21384771E+03 E0= -.21384771E+03  EK= 0.16094E+01 SP= 0.63E+01 SK= 0.24E+00
       N       E                     dE             d eps       ncg     rms          rms(c)
DAV:   1    -0.213277176259E+03    0.92719E+00   -0.53250E+02   256   0.797E+01
DAV:   2    -0.213958886523E+03   -0.68171E+00   -0.68171E+00   256   0.908E+00
DAV:   3    -0.213965320323E+03   -0.64338E-02   -0.64338E-02   512   0.768E-01
DAV:   4    -0.213965321351E+03   -0.10279E-05   -0.10280E-05   256   0.116E-02    0.358E+00
DAV:   5    -0.214143699118E+03   -0.17838E+00   -0.68797E+00   512   0.847E+00    0.562E+00
DAV:   6    -0.213917309880E+03    0.22639E+00   -0.48747E+00   512   0.436E+00    0.393E+00
DAV:   7    -0.213785394212E+03    0.13192E+00   -0.19618E+00   512   0.335E+00    0.202E+00
DAV:   8    -0.213756168660E+03    0.29226E-01   -0.78265E-01   512   0.352E+00    0.150E+00
DAV:   9    -0.213734056645E+03    0.22112E-01   -0.26573E-01   512   0.176E+00    0.659E-01
DAV:  10    -0.213735026778E+03   -0.97013E-03   -0.11578E-01   512   0.105E+00    0.688E-01
DAV:  11    -0.213730989784E+03    0.40370E-02   -0.51313E-02   512   0.687E-01    0.198E-01
DAV:  12    -0.213730979866E+03    0.99176E-05   -0.62868E-03   512   0.258E-01    0.152E-01
DAV:  13    -0.213730801656E+03    0.17821E-03   -0.25738E-03   512   0.160E-01    0.467E-02
DAV:  14    -0.213730779992E+03    0.21665E-04   -0.23078E-04   512   0.552E-02    0.171E-02
DAV:  15    -0.213730780325E+03   -0.33294E-06   -0.50131E-05   512   0.265E-02
     58 T=   554. E= -.20568126E+03 F= -.21373078E+03 E0= -.21368982E+03  EK= 0.17186E+01 SP= 0.62E+01 SK= 0.17E+00
     59 T=   584. E= -.20591440E+03 F= -.21391099E+03 E0= -.21391099E+03  EK= 0.18123E+01 SP= 0.61E+01 SK= 0.96E-01
     60 T=   602. E= -.20591515E+03 F= -.21385687E+03 E0= -.21385687E+03  EK= 0.18667E+01 SP= 0.60E+01 SK= 0.41E-01
     61 T=   606. E= -.20591550E+03 F= -.21380510E+03 E0= -.21380510E+03  EK= 0.18790E+01 SP= 0.60E+01 SK= 0.87E-02
     62 T=   595. E= -.20591535E+03 F= -.21375611E+03 E0= -.21375611E+03  EK= 0.18468E+01 SP= 0.60E+01 SK= 0.25E-03
     63 T=   572. E= -.20591477E+03 F= -.21371087E+03 E0= -.21371087E+03  EK= 0.17739E+01 SP= 0.60E+01 SK= 0.14E-01
     64 T=   538. E= -.20591393E+03 F= -.21367101E+03 E0= -.21367101E+03  EK= 0.16692E+01 SP= 0.60E+01 SK= 0.44E-01
     65 T=   498. E= -.20591307E+03 F= -.21363858E+03 E0= -.21363858E+03  EK= 0.15446E+01 SP= 0.61E+01 SK= 0.84E-01
     66 T=   455. E= -.20591238E+03 F= -.21361567E+03 E0= -.21361567E+03  EK= 0.14126E+01 SP= 0.62E+01 SK= 0.12E+00
     67 T=   414. E= -.20591193E+03 F= -.21360398E+03 E0= -.21360398E+03  EK= 0.12840E+01 SP= 0.62E+01 SK= 0.16E+00
       N       E                     dE             d eps       ncg     rms          rms(c)
DAV:   1    -0.212537344717E+03    0.11934E+01   -0.96126E+02   256   0.117E+02
DAV:   2    -0.213960905241E+03   -0.14236E+01   -0.14235E+01   256   0.135E+01
DAV:   3    -0.213975468750E+03   -0.14564E-01   -0.14563E-01   512   0.120E+00
DAV:   4    -0.213975471809E+03   -0.30585E-05   -0.30584E-05   256   0.191E-02    0.428E+00
DAV:   5    -0.213820604231E+03    0.15487E+00   -0.30962E+00   512   0.652E+00    0.466E+00
DAV:   6    -0.213792018020E+03    0.28586E-01   -0.50353E+00   512   0.463E+00    0.365E+00
DAV:   7    -0.213778968573E+03    0.13049E-01   -0.28757E+00   512   0.447E+00    0.421E+00
DAV:   8    -0.213701537472E+03    0.77431E-01   -0.26486E+00   512   0.295E+00    0.313E+00
DAV:   9    -0.213646183942E+03    0.55354E-01   -0.13380E+00   512   0.283E+00    0.178E+00
DAV:  10    -0.213614230389E+03    0.31954E-01   -0.31816E-01   512   0.190E+00    0.513E-01
DAV:  11    -0.213612633680E+03    0.15967E-02   -0.27918E-02   512   0.580E-01    0.284E-01
DAV:  12    -0.213612401232E+03    0.23245E-03   -0.87991E-03   512   0.397E-01    0.168E-01
DAV:  13    -0.213612318453E+03    0.82778E-04   -0.42757E-03   512   0.229E-01    0.899E-02
DAV:  14    -0.213612271602E+03    0.46851E-04   -0.11665E-03   512   0.102E-01    0.428E-02
DAV:  15    -0.213612260093E+03    0.11509E-04   -0.26446E-04   512   0.580E-02    0.215E-02
DAV:  16    -0.213612260331E+03   -0.23781E-06   -0.37261E-05   512   0.219E-02
     68 T=   378. E= -.20591467E+03 F= -.21361226E+03 E0= -.21356542E+03  EK= 0.11714E+01 SP= 0.63E+01 SK= 0.19E+00
       N       E                     dE             d eps       ncg     rms          rms(c)
DAV:   1    -0.213622876044E+03   -0.10616E-01   -0.70876E+00   256   0.103E+01    0.405E-01
DAV:   2    -0.213630737082E+03   -0.78610E-02   -0.11909E-01   512   0.132E+00    0.551E-01
DAV:   3    -0.213630574066E+03    0.16302E-03   -0.53563E-02   384   0.568E-01    0.511E-01
DAV:   4    -0.213629441125E+03    0.11329E-02   -0.29991E-02   512   0.441E-01    0.354E-01
DAV:   5    -0.213629393489E+03    0.47636E-04   -0.21163E-02   512   0.295E-01    0.348E-01
DAV:   6    -0.213628729223E+03    0.66427E-03   -0.12455E-02   512   0.278E-01    0.130E-01
DAV:   7    -0.213628605357E+03    0.12387E-03   -0.30152E-03   512   0.168E-01    0.827E-02
DAV:   8    -0.213628571450E+03    0.33907E-04   -0.10283E-03   512   0.939E-02    0.530E-02
DAV:   9    -0.213628548782E+03    0.22668E-04   -0.27357E-04   512   0.482E-02    0.181E-02
DAV:  10    -0.213628547268E+03    0.15145E-05   -0.37787E-05   512   0.208E-02
     69 T=   346. E= -.20591456E+03 F= -.21362855E+03 E0= -.21358177E+03  EK= 0.10724E+01 SP= 0.64E+01 SK= 0.21E+00
     70 T=   316. E= -.20615229E+03 F= -.21388482E+03 E0= -.21388482E+03  EK= 0.98130E+00 SP= 0.65E+01 SK= 0.22E+00
     71 T=   290. E= -.20615234E+03 F= -.21390352E+03 E0= -.21390352E+03  EK= 0.89837E+00 SP= 0.66E+01 SK= 0.22E+00
     72 T=   266. E= -.20615244E+03 F= -.21392282E+03 E0= -.21392282E+03  EK= 0.82515E+00 SP= 0.67E+01 SK= 0.21E+00
     73 T=   246. E= -.20615256E+03 F= -.21394240E+03 E0= -.21394240E+03  EK= 0.76170E+00 SP= 0.68E+01 SK= 0.20E+00
     74 T=   228. E= -.20615269E+03 F= -.21396195E+03 E0= -.21396195E+03  EK= 0.70761E+00 SP= 0.69E+01 SK= 0.18E+00
     75 T=   213. E= -.20615281E+03 F= -.21398118E+03 E0= -.21398118E+03  EK= 0.66219E+00 SP= 0.70E+01 SK= 0.16E+00
     76 T=   201. E= -.20615293E+03 F= -.21399980E+03 E0= -.21399980E+03  EK= 0.62463E+00 SP= 0.71E+01 SK= 0.13E+00
     77 T=   191. E= -.20615302E+03 F= -.21401753E+03 E0= -.21401753E+03  EK= 0.59407E+00 SP= 0.72E+01 SK= 0.11E+00
     78 T=   184. E= -.20615310E+03 F= -.21403414E+03 E0= -.21403414E+03  EK= 0.56976E+00 SP= 0.72E+01 SK= 0.81E-01
       N       E                     dE             d eps       ncg     rms          rms(c)
DAV:   1    -0.213490836321E+03    0.13771E+00   -0.43542E+02   256   0.787E+01
DAV:   2    -0.214077477742E+03   -0.58664E+00   -0.58663E+00   256   0.873E+00
DAV:   3    -0.214082811861E+03   -0.53341E-02   -0.53341E-02   512   0.736E-01
DAV:   4    -0.214082812786E+03   -0.92523E-06   -0.92583E-06   256   0.111E-02    0.315E+00
DAV:   5    -0.214136657345E+03   -0.53845E-01   -0.26452E+00   512   0.521E+00    0.507E+00
DAV:   6    -0.214019826490E+03    0.11683E+00   -0.37085E+00   512   0.330E+00    0.282E+00
DAV:   7    -0.214030789866E+03   -0.10963E-01   -0.19167E+00   512   0.371E+00    0.380E+00
DAV:   8    -0.213960850540E+03    0.69939E-01   -0.17011E+00   512   0.273E+00    0.173E+00
DAV:   9    -0.213945412773E+03    0.15438E-01   -0.52859E-01   512   0.199E+00    0.166E+00
DAV:  10    -0.213932592578E+03    0.12820E-01   -0.31198E-01   512   0.142E+00    0.936E-01
DAV:  11    -0.213926558986E+03    0.60336E-02   -0.71038E-02   512   0.627E-01    0.340E-01
DAV:  12    -0.213925697575E+03    0.86141E-03   -0.80011E-03   512   0.294E-01    0.145E-01
DAV:  13    -0.213925632831E+03    0.64744E-04   -0.22726E-03   512   0.203E-01    0.862E-02
DAV:  14    -0.213925594316E+03    0.38515E-04   -0.76315E-04   512   0.106E-01    0.276E-02
DAV:  15    -0.213925591459E+03    0.28570E-05   -0.11122E-04   512   0.434E-02    0.177E-02
DAV:  16    -0.213925590157E+03    0.13023E-05   -0.28523E-05   512   0.200E-02
     79 T=   180. E= -.20602105E+03 F= -.21392559E+03 E0= -.21387852E+03  EK= 0.55925E+00 SP= 0.73E+01 SK= 0.59E-01
     80 T=   178. E= -.20613511E+03 F= -.21406027E+03 E0= -.21406027E+03  EK= 0.55135E+00 SP= 0.73E+01 SK= 0.40E-01
     81 T=   173. E= -.20613513E+03 F= -.21406916E+03 E0= -.21406916E+03  EK= 0.53798E+00 SP= 0.74E+01 SK= 0.24E-01
     82 T=   171. E= -.20613513E+03 F= -.21407642E+03 E0= -.21407642E+03  EK= 0.52897E+00 SP= 0.74E+01 SK= 0.12E-01
     83 T=   169. E= -.20613512E+03 F= -.21408238E+03 E0= -.21408238E+03  EK= 0.52450E+00 SP= 0.74E+01 SK= 0.40E-02
     84 T=   169. E= -.20613509E+03 F= -.21408748E+03 E0= -.21408748E+03  EK= 0.52484E+00 SP= 0.74E+01 SK= 0.26E-03
     85 T=   171. E= -.20613505E+03 F= -.21409212E+03 E0= -.21409212E+03  EK= 0.53037E+00 SP= 0.74E+01 SK= 0.91E-03
     86 T=   175. E= -.20613500E+03 F= -.21409673E+03 E0= -.21409673E+03  EK= 0.54157E+00 SP= 0.74E+01 SK= 0.57E-02
     87 T=   180. E= -.20613493E+03 F= -.21410173E+03 E0= -.21410173E+03  EK= 0.55900E+00 SP= 0.74E+01 SK= 0.14E-01
     88 T=   188. E= -.20613485E+03 F= -.21410745E+03 E0= -.21410745E+03  EK= 0.58322E+00 SP= 0.74E+01 SK= 0.26E-01
       N       E                     dE             d eps       ncg     rms          rms(c)
DAV:   1    -0.213745315808E+03    0.18028E+00   -0.31012E+02   256   0.697E+01
DAV:   2    -0.214217260239E+03   -0.47194E+00   -0.47194E+00   256   0.791E+00
DAV:   3    -0.214221738174E+03   -0.44779E-02   -0.44779E-02   512   0.694E-01
DAV:   4    -0.214221738870E+03   -0.69646E-06   -0.69637E-06   256   0.102E-02    0.292E+00
DAV:   5    -0.214287632679E+03   -0.65894E-01   -0.26531E+00   512   0.484E+00    0.399E+00
DAV:   6    -0.214153993501E+03    0.13364E+00   -0.23275E+00   512   0.374E+00    0.243E+00
DAV:   7    -0.214162422666E+03   -0.84292E-02   -0.14109E+00   512   0.305E+00    0.299E+00
DAV:   8    -0.214137767372E+03    0.24655E-01   -0.12903E+00   512   0.257E+00    0.233E+00
DAV:   9    -0.214112628957E+03    0.25138E-01   -0.81315E-01   512   0.185E+00    0.148E+00
DAV:  10    -0.214097990070E+03    0.14639E-01   -0.18146E-01   512   0.130E+00    0.501E-01
DAV:  11    -0.214095908491E+03    0.20816E-02   -0.21347E-02   512   0.500E-01    0.229E-01
DAV:  12    -0.214095628684E+03    0.27981E-03   -0.51686E-03   512   0.263E-01    0.974E-02
DAV:  13    -0.214095604621E+03    0.24063E-04   -0.14011E-03   512   0.168E-01    0.791E-02
DAV:  14    -0.214095573775E+03    0.30846E-04   -0.36478E-04   512   0.772E-02    0.277E-02
DAV:  15    -0.214095569388E+03    0.43873E-05   -0.77475E-05   512   0.346E-02
     89 T=   198. E= -.20611830E+03 F= -.21409557E+03 E0= -.21404833E+03  EK= 0.61271E+00 SP= 0.73E+01 SK= 0.40E-01
     90 T=   208. E= -.20613648E+03 F= -.21411571E+03 E0= -.21411571E+03  EK= 0.64603E+00 SP= 0.73E+01 SK= 0.55E-01
     91 T=   221. E= -.20613639E+03 F= -.21411847E+03 E0= -.21411847E+03  EK= 0.68712E+00 SP= 0.72E+01 SK= 0.70E-01
     92 T=   237. E= -.20613629E+03 F= -.21412254E+03 E0= -.21412254E+03  EK= 0.73665E+00 SP= 0.72E+01 SK= 0.84E-01
     93 T=   256. E= -.20613622E+03 F= -.21412790E+03 E0= -.21412790E+03  EK= 0.79480E+00 SP= 0.71E+01 SK= 0.95E-01
     94 T=   278. E= -.20613618E+03 F= -.21413433E+03 E0= -.21413433E+03  EK= 0.86124E+00 SP= 0.70E+01 SK= 0.10E+00
     95 T=   301. E= -.20613620E+03 F= -.21414148E+03 E0= -.21414148E+03  EK= 0.93505E+00 SP= 0.70E+01 SK= 0.11E+00
     96 T=   327. E= -.20613627E+03 F= -.21414888E+03 E0= -.21414888E+03  EK= 0.10146E+01 SP= 0.69E+01 SK= 0.10E+00
     97 T=   354. E= -.20613643E+03 F= -.21415602E+03 E0= -.21415602E+03  EK= 0.10975E+01 SP= 0.68E+01 SK= 0.93E-01
     98 T=   381. E= -.20613665E+03 F= -.21416238E+03 E0= -.21416238E+03  EK= 0.11805E+01 SP= 0.68E+01 SK= 0.78E-01
       N       E                     dE             d eps       ncg     rms          rms(c)
DAV:   1    -0.213472662097E+03    0.62291E+00   -0.43980E+02   256   0.890E+01
DAV:   2    -0.214212380820E+03   -0.73972E+00   -0.73971E+00   256   0.103E+01
DAV:   3    -0.214219801387E+03   -0.74206E-02   -0.74206E-02   512   0.902E-01
DAV:   4    -0.214219802559E+03   -0.11720E-05   -0.11728E-05   256   0.132E-02    0.354E+00
DAV:   5    -0.214257244046E+03   -0.37441E-01   -0.40183E+00   512   0.684E+00    0.392E+00
DAV:   6    -0.214165501813E+03    0.91742E-01   -0.27710E+00   512   0.443E+00    0.420E+00
DAV:   7    -0.214081797677E+03    0.83704E-01   -0.21715E+00   512   0.265E+00    0.238E+00
DAV:   8    -0.214134761574E+03   -0.52964E-01   -0.18234E+00   512   0.368E+00    0.376E+00
DAV:   9    -0.214066067774E+03    0.68694E-01   -0.14891E+00   512   0.218E+00    0.200E+00
DAV:  10    -0.214036394296E+03    0.29673E-01   -0.55303E-01   512   0.177E+00    0.761E-01
DAV:  11    -0.214029494887E+03    0.68994E-02   -0.47067E-02   256   0.948E-01    0.339E-01
DAV:  12    -0.214028777507E+03    0.71738E-03   -0.83635E-03   512   0.342E-01    0.192E-01
DAV:  13    -0.214028572958E+03    0.20455E-03   -0.34709E-03   512   0.228E-01    0.103E-01
DAV:  14    -0.214028499065E+03    0.73893E-04   -0.98701E-04   512   0.112E-01    0.305E-02
DAV:  15    -0.214028493524E+03    0.55415E-05   -0.15030E-04   512   0.525E-02    0.158E-02
DAV:  16    -0.214028493642E+03   -0.11830E-06   -0.32761E-05   512   0.247E-02
     99 T=   403. E= -.20600829E+03 F= -.21402849E+03 E0= -.21398171E+03  EK= 0.12491E+01 SP= 0.67E+01 SK= 0.61E-01
    100 T=   421. E= -.20615521E+03 F= -.21416467E+03 E0= -.21416467E+03  EK= 0.13050E+01 SP= 0.67E+01 SK= 0.43E-01
    101 T=   437. E= -.20615544E+03 F= -.21415999E+03 E0= -.21415999E+03  EK= 0.13564E+01 SP= 0.66E+01 SK= 0.25E-01
    102 T=   449. E= -.20615563E+03 F= -.21415389E+03 E0= -.21415389E+03  EK= 0.13926E+01 SP= 0.66E+01 SK= 0.12E-01
    103 T=   455. E= -.20615572E+03 F= -.21414680E+03 E0= -.21414680E+03  EK= 0.14115E+01 SP= 0.66E+01 SK= 0.28E-02
    104 T=   455. E= -.20615573E+03 F= -.21413917E+03 E0= -.21413917E+03  EK= 0.14119E+01 SP= 0.66E+01 SK= 0.11E-04
    105 T=   449. E= -.20615564E+03 F= -.21413134E+03 E0= -.21413134E+03  EK= 0.13942E+01 SP= 0.66E+01 SK= 0.34E-02
    106 T=   438. E= -.20615549E+03 F= -.21412341E+03 E0= -.21412341E+03  EK= 0.13595E+01 SP= 0.66E+01 SK= 0.12E-01
    107 T=   422. E= -.20615529E+03 F= -.21411526E+03 E0= -.21411526E+03  EK= 0.13101E+01 SP= 0.66E+01 SK= 0.25E-01
    108 T=   403. E= -.20615508E+03 F= -.21410658E+03 E0= -.21410658E+03  EK= 0.12490E+01 SP= 0.67E+01 SK= 0.39E-01
       N       E                     dE             d eps       ncg     rms          rms(c)
DAV:   1    -0.212777833038E+03    0.12507E+01   -0.65572E+02   256   0.107E+02
DAV:   2    -0.213954345479E+03   -0.11765E+01   -0.11765E+01   256   0.129E+01
DAV:   3    -0.213973091412E+03   -0.18746E-01   -0.18746E-01   512   0.129E+00
DAV:   4    -0.213973095981E+03   -0.45686E-05   -0.45679E-05   256   0.237E-02    0.480E+00
DAV:   5    -0.213952114718E+03    0.20981E-01   -0.46323E+00   512   0.746E+00    0.552E+00
DAV:   6    -0.213855982908E+03    0.96132E-01   -0.57256E+00   512   0.473E+00    0.421E+00
DAV:   7    -0.213868342592E+03   -0.12360E-01   -0.38856E+00   512   0.358E+00    0.434E+00
DAV:   8    -0.213798271457E+03    0.70071E-01   -0.28883E+00   512   0.378E+00    0.366E+00
DAV:   9    -0.213702530457E+03    0.95741E-01   -0.20377E+00   512   0.336E+00    0.138E+00
DAV:  10    -0.213677798275E+03    0.24732E-01   -0.21256E-01   512   0.194E+00    0.681E-01
DAV:  11    -0.213674717438E+03    0.30808E-02   -0.40743E-02   512   0.793E-01    0.343E-01
DAV:  12    -0.213673660391E+03    0.10570E-02   -0.13790E-02   512   0.524E-01    0.185E-01
DAV:  13    -0.213673522665E+03    0.13773E-03   -0.34103E-03   512   0.284E-01    0.995E-02
DAV:  14    -0.213673485556E+03    0.37108E-04   -0.11657E-03   512   0.158E-01    0.610E-02
DAV:  15    -0.213673464449E+03    0.21107E-04   -0.34430E-04   512   0.820E-02    0.204E-02
DAV:  16    -0.213673462369E+03    0.20800E-05   -0.31461E-05   512   0.257E-02
    109 T=   374. E= -.20574917E+03 F= -.21367346E+03 E0= -.21363036E+03  EK= 0.11615E+01 SP= 0.67E+01 SK= 0.54E-01
    110 T=   345. E= -.20618800E+03 F= -.21408158E+03 E0= -.21408158E+03  EK= 0.10689E+01 SP= 0.68E+01 SK= 0.64E-01
    111 T=   320. E= -.20618789E+03 F= -.21406617E+03 E0= -.21406617E+03  EK= 0.99230E+00 SP= 0.68E+01 SK= 0.70E-01
    112 T=   296. E= -.20618784E+03 F= -.21405110E+03 E0= -.21405110E+03  EK= 0.91883E+00 SP= 0.69E+01 SK= 0.71E-01
    113 T=   274. E= -.20618782E+03 F= -.21403669E+03 E0= -.21403669E+03  EK= 0.85058E+00 SP= 0.69E+01 SK= 0.68E-01
    114 T=   254. E= -.20618784E+03 F= -.21402335E+03 E0= -.21402335E+03  EK= 0.78902E+00 SP= 0.70E+01 SK= 0.62E-01
    115 T=   237. E= -.20618788E+03 F= -.21401153E+03 E0= -.21401153E+03  EK= 0.73520E+00 SP= 0.70E+01 SK= 0.53E-01
    116 T=   222. E= -.20618792E+03 F= -.21400173E+03 E0= -.21400173E+03  EK= 0.68979E+00 SP= 0.71E+01 SK= 0.42E-01
    117 T=   211. E= -.20618797E+03 F= -.21399451E+03 E0= -.21399451E+03  EK= 0.65326E+00 SP= 0.71E+01 SK= 0.30E-01
    118 T=   202. E= -.20618800E+03 F= -.21399041E+03 E0= -.21399041E+03  EK= 0.62593E+00 SP= 0.72E+01 SK= 0.20E-01
       N       E                     dE             d eps       ncg     rms          rms(c)
DAV:   1    -0.212915650509E+03    0.75781E+00   -0.44114E+02   256   0.834E+01
DAV:   2    -0.213580636956E+03   -0.66499E+00   -0.66499E+00   256   0.948E+00
DAV:   3    -0.213590271471E+03   -0.96345E-02   -0.96345E-02   512   0.896E-01
DAV:   4    -0.213590274573E+03   -0.31025E-05   -0.31025E-05   256   0.173E-02    0.329E+00
DAV:   5    -0.213589542791E+03    0.73178E-03   -0.31722E+00   512   0.627E+00    0.382E+00
DAV:   6    -0.213458485595E+03    0.13106E+00   -0.21961E+00   512   0.370E+00    0.229E+00
DAV:   7    -0.213471439324E+03   -0.12954E-01   -0.14679E+00   512   0.335E+00    0.281E+00
DAV:   8    -0.213422702333E+03    0.48737E-01   -0.11407E+00   512   0.298E+00    0.164E+00
DAV:   9    -0.213397427553E+03    0.25275E-01   -0.32839E-01   512   0.168E+00    0.609E-01
DAV:  10    -0.213393886072E+03    0.35415E-02   -0.53181E-02   512   0.880E-01    0.264E-01
DAV:  11    -0.213393459612E+03    0.42646E-03   -0.69459E-03   512   0.319E-01    0.112E-01
DAV:  12    -0.213393476862E+03   -0.17249E-04   -0.16077E-03   256   0.167E-01    0.668E-02
DAV:  13    -0.213393440033E+03    0.36829E-04   -0.62909E-04   512   0.930E-02    0.263E-02
DAV:  14    -0.213393437849E+03    0.21833E-05   -0.97641E-05   512   0.421E-02
    119 T=   195. E= -.20559451E+03 F= -.21339344E+03 E0= -.21335493E+03  EK= 0.60503E+00 SP= 0.72E+01 SK= 0.11E-01
    120 T=   193. E= -.20569110E+03 F= -.21349490E+03 E0= -.21349490E+03  EK= 0.59810E+00 SP= 0.72E+01 SK= 0.44E-02
    121 T=   197. E= -.20569118E+03 F= -.21351388E+03 E0= -.21351388E+03  EK= 0.61040E+00 SP= 0.72E+01 SK= 0.82E-03
    122 T=   206. E= -.20569125E+03 F= -.21354394E+03 E0= -.21354394E+03  EK= 0.63881E+00 SP= 0.72E+01 SK= 0.45E-04
    123 T=   220. E= -.20569132E+03 F= -.21358320E+03 E0= -.21358320E+03  EK= 0.68140E+00 SP= 0.72E+01 SK= 0.14E-02
    124 T=   237. E= -.20569139E+03 F= -.21362952E+03 E0= -.21362952E+03  EK= 0.73593E+00 SP= 0.72E+01 SK= 0.40E-02
    125 T=   258. E= -.20569147E+03 F= -.21368059E+03 E0= -.21368059E+03  EK= 0.79983E+00 SP= 0.72E+01 SK= 0.68E-02
    126 T=   280. E= -.20569157E+03 F= -.21373414E+03 E0= -.21373414E+03  EK= 0.87018E+00 SP= 0.72E+01 SK= 0.87E-02
    127 T=   304. E= -.20569168E+03 F= -.21378806E+03 E0= -.21378806E+03  EK= 0.94376E+00 SP= 0.71E+01 SK= 0.92E-02
    128 T=   328. E= -.20569181E+03 F= -.21384060E+03 E0= -.21384060E+03  EK= 0.10172E+01 SP= 0.71E+01 SK= 0.81E-02
       N       E                     dE             d eps       ncg     rms          rms(c)
DAV:   1    -0.213390848903E+03    0.25911E-02   -0.38961E+02   256   0.813E+01
DAV:   2    -0.213997260186E+03   -0.60641E+00   -0.60641E+00   512   0.914E+00
DAV:   3    -0.213997343649E+03   -0.83464E-04   -0.83464E-04   256   0.111E-01
DAV:   4    -0.213997345338E+03   -0.16889E-05   -0.16886E-05   512   0.110E-02    0.425E+00
DAV:   5    -0.213892642633E+03    0.10470E+00   -0.29783E+00   512   0.664E+00    0.398E+00
DAV:   6    -0.213831571528E+03    0.61071E-01   -0.22334E+00   512   0.434E+00    0.285E+00
DAV:   7    -0.213825590854E+03    0.59807E-02   -0.16779E+00   512   0.322E+00    0.272E+00
DAV:   8    -0.213789313189E+03    0.36278E-01   -0.14492E+00   512   0.378E+00    0.156E+00
DAV:   9    -0.213764028711E+03    0.25284E-01   -0.30719E-01   512   0.177E+00    0.720E-01
DAV:  10    -0.213759920480E+03    0.41082E-02   -0.63150E-02   512   0.798E-01    0.390E-01
DAV:  11    -0.213758711990E+03    0.12085E-02   -0.18057E-02   512   0.539E-01    0.180E-01
DAV:  12    -0.213758529968E+03    0.18202E-03   -0.46353E-03   512   0.264E-01    0.101E-01
DAV:  13    -0.213758490905E+03    0.39064E-04   -0.13223E-03   512   0.141E-01    0.381E-02
DAV:  14    -0.213758473199E+03    0.17705E-04   -0.19563E-04   512   0.580E-02    0.123E-02
DAV:  15    -0.213758474334E+03   -0.11343E-05   -0.19169E-05   512   0.174E-02
    129 T=   349. E= -.20556310E+03 F= -.21375847E+03 E0= -.21372675E+03  EK= 0.10838E+01 SP= 0.71E+01 SK= 0.57E-02
    130 T=   368. E= -.20569764E+03 F= -.21393503E+03 E0= -.21393503E+03  EK= 0.11425E+01 SP= 0.71E+01 SK= 0.29E-02
    131 T=   385. E= -.20569769E+03 F= -.21397605E+03 E0= -.21397605E+03  EK= 0.11943E+01 SP= 0.71E+01 SK= 0.69E-03
    132 T=   398. E= -.20569769E+03 F= -.21401432E+03 E0= -.21401432E+03  EK= 0.12353E+01 SP= 0.71E+01 SK= 0.49E-04
    133 T=   408. E= -.20569764E+03 F= -.21405103E+03 E0= -.21405103E+03  EK= 0.12647E+01 SP= 0.71E+01 SK= 0.20E-02
    134 T=   413. E= -.20569755E+03 F= -.21408763E+03 E0= -.21408763E+03  EK= 0.12824E+01 SP= 0.71E+01 SK= 0.71E-02
    135 T=   416. E= -.20569743E+03 F= -.21412552E+03 E0= -.21412552E+03  EK= 0.12892E+01 SP= 0.71E+01 SK= 0.16E-01
    136 T=   415. E= -.20569730E+03 F= -.21416581E+03 E0= -.21416581E+03  EK= 0.12860E+01 SP= 0.72E+01 SK= 0.28E-01
    137 T=   411. E= -.20569718E+03 F= -.21420913E+03 E0= -.21420913E+03  EK= 0.12740E+01 SP= 0.72E+01 SK= 0.43E-01
    138 T=   404. E= -.20569706E+03 F= -.21425551E+03 E0= -.21425551E+03  EK= 0.12540E+01 SP= 0.72E+01 SK= 0.61E-01
       N       E                     dE             d eps       ncg     rms          rms(c)
DAV:   1    -0.213173729509E+03    0.58474E+00   -0.54111E+02   256   0.108E+02
DAV:   2    -0.214244455800E+03   -0.10707E+01   -0.10707E+01   256   0.124E+01
DAV:   3    -0.214255163870E+03   -0.10708E-01   -0.10708E-01   512   0.113E+00
DAV:   4    -0.214255165793E+03   -0.19235E-05   -0.19236E-05   256   0.169E-02    0.450E+00
DAV:   5    -0.214241717979E+03    0.13448E-01   -0.39547E+00   512   0.801E+00    0.485E+00
DAV:   6    -0.214057915019E+03    0.18380E+00   -0.26533E+00   512   0.463E+00    0.280E+00
DAV:   7    -0.214002748579E+03    0.55166E-01   -0.65999E-01   512   0.325E+00    0.134E+00
DAV:   8    -0.213992826507E+03    0.99221E-02   -0.37240E-01   512   0.230E+00    0.104E+00
DAV:   9    -0.213990080079E+03    0.27464E-02   -0.20834E-01   512   0.128E+00    0.854E-01
DAV:  10    -0.213983743881E+03    0.63362E-02   -0.61359E-02   512   0.814E-01    0.300E-01
DAV:  11    -0.213983155770E+03    0.58811E-03   -0.14575E-02   512   0.484E-01    0.182E-01
DAV:  12    -0.213982835351E+03    0.32042E-03   -0.37407E-03   512   0.252E-01    0.591E-02
DAV:  13    -0.213982824907E+03    0.10444E-04   -0.72124E-04   512   0.109E-01    0.364E-02
DAV:  14    -0.213982817462E+03    0.74446E-05   -0.18630E-04   512   0.573E-02    0.166E-02
DAV:  15    -0.213982819385E+03   -0.19228E-05   -0.31478E-05   512   0.232E-02
    139 T=   390. E= -.20539330E+03 F= -.21398282E+03 E0= -.21394791E+03  EK= 0.12092E+01 SP= 0.73E+01 SK= 0.80E-01
    140 T=   373. E= -.20573132E+03 F= -.21435048E+03 E0= -.21435048E+03  EK= 0.11582E+01 SP= 0.74E+01 SK= 0.97E-01
    141 T=   361. E= -.20573125E+03 F= -.21439706E+03 E0= -.21439706E+03  EK= 0.11197E+01 SP= 0.74E+01 SK= 0.11E+00
    142 T=   347. E= -.20573119E+03 F= -.21444276E+03 E0= -.21444276E+03  EK= 0.10779E+01 SP= 0.75E+01 SK= 0.13E+00
    143 T=   333. E= -.20573113E+03 F= -.21448628E+03 E0= -.21448628E+03  EK= 0.10331E+01 SP= 0.76E+01 SK= 0.14E+00
    144 T=   318. E= -.20573107E+03 F= -.21452650E+03 E0= -.21452650E+03  EK= 0.98608E+00 SP= 0.77E+01 SK= 0.14E+00
    145 T=   302. E= -.20573101E+03 F= -.21456265E+03 E0= -.21456265E+03  EK= 0.93769E+00 SP= 0.77E+01 SK= 0.15E+00
    146 T=   287. E= -.20573095E+03 F= -.21459438E+03 E0= -.21459438E+03  EK= 0.88897E+00 SP= 0.78E+01 SK= 0.15E+00
    147 T=   271. E= -.20573090E+03 F= -.21462178E+03 E0= -.21462178E+03  EK= 0.84113E+00 SP= 0.79E+01 SK= 0.14E+00
    148 T=   256. E= -.20573087E+03 F= -.21464538E+03 E0= -.21464538E+03  EK= 0.79548E+00 SP= 0.80E+01 SK= 0.13E+00
       N       E                     dE             d eps       ncg     rms          rms(c)
DAV:   1    -0.213238924721E+03    0.74389E+00   -0.46284E+02   256   0.966E+01
DAV:   2    -0.214081957430E+03   -0.84303E+00   -0.84302E+00   256   0.110E+01
DAV:   3    -0.214090490447E+03   -0.85330E-02   -0.85330E-02   512   0.983E-01
DAV:   4    -0.214090492122E+03   -0.16745E-05   -0.16739E-05   256   0.160E-02    0.373E+00
DAV:   5    -0.214006874641E+03    0.83617E-01   -0.23707E+00   512   0.563E+00    0.349E+00
DAV:   6    -0.213950989947E+03    0.55885E-01   -0.18428E+00   512   0.401E+00    0.287E+00
DAV:   7    -0.213924190543E+03    0.26799E-01   -0.17182E+00   512   0.377E+00    0.211E+00
DAV:   8    -0.213905456124E+03    0.18734E-01   -0.77411E-01   512   0.241E+00    0.226E+00
DAV:   9    -0.213880749743E+03    0.24706E-01   -0.42085E-01   512   0.131E+00    0.757E-01
DAV:  10    -0.213875390431E+03    0.53593E-02   -0.79211E-02   512   0.954E-01    0.348E-01
DAV:  11    -0.213874512372E+03    0.87806E-03   -0.13286E-02   512   0.476E-01    0.160E-01
DAV:  12    -0.213874461911E+03    0.50461E-04   -0.35935E-03   512   0.247E-01    0.881E-02
DAV:  13    -0.213874412138E+03    0.49772E-04   -0.94211E-04   512   0.126E-01    0.315E-02
DAV:  14    -0.213874406159E+03    0.59797E-05   -0.16149E-04   512   0.555E-02    0.159E-02
DAV:  15    -0.213874405647E+03    0.51164E-06   -0.26156E-05   512   0.206E-02
    149 T=   234. E= -.20496691E+03 F= -.21387441E+03 E0= -.21383835E+03  EK= 0.72568E+00 SP= 0.81E+01 SK= 0.12E+00
    150 T=   214. E= -.20578389E+03 F= -.21468115E+03 E0= -.21468115E+03  EK= 0.66384E+00 SP= 0.81E+01 SK= 0.99E-01
    151 T=   204. E= -.20578390E+03 F= -.21469593E+03 E0= -.21469593E+03  EK= 0.63409E+00 SP= 0.82E+01 SK= 0.79E-01
       N       E                     dE             d eps       ncg     rms          rms(c)
DAV:   1    -0.213734094762E+03    0.14031E+00   -0.33486E+01   256   0.237E+01
DAV:   2    -0.213784016380E+03   -0.49922E-01   -0.49922E-01   256   0.264E+00
DAV:   3    -0.213784539859E+03   -0.52348E-03   -0.52348E-03   512   0.231E-01
DAV:   4    -0.213784539956E+03   -0.97072E-07   -0.96892E-07   256   0.371E-03    0.999E-01
DAV:   5    -0.213778063924E+03    0.64760E-02   -0.13365E-01   512   0.150E+00    0.930E-01
DAV:   6    -0.213782272127E+03   -0.42082E-02   -0.22659E-01   512   0.125E+00    0.133E+00
DAV:   7    -0.213774986139E+03    0.72860E-02   -0.19910E-01   512   0.109E+00    0.690E-01
DAV:   8    -0.213776163597E+03   -0.11775E-02   -0.10491E-01   512   0.863E-01    0.733E-01
DAV:   9    -0.213771171605E+03    0.49920E-02   -0.44448E-02   512   0.656E-01    0.124E-01
DAV:  10    -0.213770981068E+03    0.19054E-03   -0.24963E-03   256   0.181E-01    0.923E-02
DAV:  11    -0.213770919031E+03    0.62037E-04   -0.80479E-04   256   0.115E-01    0.354E-02
DAV:  12    -0.213770911348E+03    0.76839E-05   -0.17892E-04   512   0.520E-02    0.170E-02
DAV:  13    -0.213770910156E+03    0.11914E-05   -0.28535E-05   256   0.198E-02
    152 T=   189. E= -.20486777E+03 F= -.21377091E+03 E0= -.21373512E+03  EK= 0.58736E+00 SP= 0.83E+01 SK= 0.61E-01
    153 T=   171. E= -.20512488E+03 F= -.21399943E+03 E0= -.21399943E+03  EK= 0.52991E+00 SP= 0.83E+01 SK= 0.41E-01
    154 T=   157. E= -.20512498E+03 F= -.21397869E+03 E0= -.21397869E+03  EK= 0.48816E+00 SP= 0.83E+01 SK= 0.24E-01
    155 T=   149. E= -.20512507E+03 F= -.21396814E+03 E0= -.21396814E+03  EK= 0.46351E+00 SP= 0.84E+01 SK= 0.10E-01
    156 T=   147. E= -.20512514E+03 F= -.21396808E+03 E0= -.21396808E+03  EK= 0.45551E+00 SP= 0.84E+01 SK= 0.23E-02
    157 T=   149. E= -.20512518E+03 F= -.21397824E+03 E0= -.21397824E+03  EK= 0.46347E+00 SP= 0.84E+01 SK= 0.47E-04
    158 T=   157. E= -.20512520E+03 F= -.21399771E+03 E0= -.21399771E+03  EK= 0.48655E+00 SP= 0.84E+01 SK= 0.35E-02
    159 T=   169. E= -.20512520E+03 F= -.21402515E+03 E0= -.21402515E+03  EK= 0.52375E+00 SP= 0.84E+01 SK= 0.12E-01
    160 T=   185. E= -.20512519E+03 F= -.21405878E+03 E0= -.21405878E+03  EK= 0.57387E+00 SP= 0.83E+01 SK= 0.23E-01
    161 T=   205. E= -.20512519E+03 F= -.21409653E+03 E0= -.21409653E+03  EK= 0.63549E+00 SP= 0.83E+01 SK= 0.36E-01
       N       E                     dE             d eps       ncg     rms          rms(c)
DAV:   1    -0.213671965179E+03    0.98946E-01   -0.28061E+02   256   0.647E+01
DAV:   2    -0.214066508952E+03   -0.39454E+00   -0.39454E+00   256   0.731E+00
DAV:   3    -0.214070760871E+03   -0.42519E-02   -0.42519E-02   512   0.638E-01
DAV:   4    -0.214070761597E+03   -0.72610E-06   -0.72624E-06   256   0.983E-03    0.281E+00
DAV:   5    -0.214124306229E+03   -0.53545E-01   -0.26346E+00   512   0.486E+00    0.376E+00
DAV:   6    -0.214032734639E+03    0.91572E-01   -0.22625E+00   512   0.390E+00    0.284E+00
DAV:   7    -0.214000675998E+03    0.32059E-01   -0.13010E+00   512   0.296E+00    0.219E+00
DAV:   8    -0.213982021896E+03    0.18654E-01   -0.84956E-01   512   0.248E+00    0.123E+00
DAV:   9    -0.213966465086E+03    0.15557E-01   -0.20989E-01   512   0.153E+00    0.570E-01
DAV:  10    -0.213962372230E+03    0.40929E-02   -0.37933E-02   512   0.814E-01    0.235E-01
DAV:  11    -0.213962035572E+03    0.33666E-03   -0.60816E-03   256   0.292E-01    0.106E-01
DAV:  12    -0.213962032418E+03    0.31541E-05   -0.12376E-03   512   0.153E-01    0.605E-02
DAV:  13    -0.213962013128E+03    0.19290E-04   -0.53305E-04   256   0.969E-02    0.248E-02
DAV:  14    -0.213962010276E+03    0.28519E-05   -0.12281E-04   512   0.491E-02    0.132E-02
DAV:  15    -0.213962009541E+03    0.73465E-06   -0.26146E-05   256   0.225E-02
    162 T=   230. E= -.20494369E+03 F= -.21396201E+03 E0= -.21392964E+03  EK= 0.71419E+00 SP= 0.83E+01 SK= 0.49E-01
    163 T=   258. E= -.20511034E+03 F= -.21417394E+03 E0= -.21417394E+03  EK= 0.79978E+00 SP= 0.82E+01 SK= 0.57E-01
    164 T=   284. E= -.20511045E+03 F= -.21420844E+03 E0= -.21420844E+03  EK= 0.88165E+00 SP= 0.82E+01 SK= 0.62E-01
    165 T=   311. E= -.20511061E+03 F= -.21423771E+03 E0= -.21423771E+03  EK= 0.96408E+00 SP= 0.81E+01 SK= 0.63E-01
    166 T=   336. E= -.20511080E+03 F= -.21426020E+03 E0= -.21426020E+03  EK= 0.10435E+01 SP= 0.80E+01 SK= 0.58E-01
    167 T=   360. E= -.20511101E+03 F= -.21427483E+03 E0= -.21427483E+03  EK= 0.11160E+01 SP= 0.80E+01 SK= 0.50E-01
    168 T=   380. E= -.20511121E+03 F= -.21428115E+03 E0= -.21428115E+03  EK= 0.11783E+01 SP= 0.80E+01 SK= 0.40E-01
    169 T=   396. E= -.20511137E+03 F= -.21427930E+03 E0= -.21427930E+03  EK= 0.12271E+01 SP= 0.79E+01 SK= 0.28E-01
    170 T=   406. E= -.20511146E+03 F= -.21427004E+03 E0= -.21427004E+03  EK= 0.12605E+01 SP= 0.79E+01 SK= 0.17E-01
    171 T=   412. E= -.20511147E+03 F= -.21425467E+03 E0= -.21425467E+03  EK= 0.12775E+01 SP= 0.79E+01 SK= 0.82E-02
       N       E                     dE             d eps       ncg     rms          rms(c)
DAV:   1    -0.213610906375E+03    0.35110E+00   -0.62044E+02   256   0.963E+01
DAV:   2    -0.214542039590E+03   -0.93113E+00   -0.93113E+00   256   0.111E+01
DAV:   3    -0.214550978605E+03   -0.89390E-02   -0.89390E-02   512   0.975E-01
DAV:   4    -0.214550980188E+03   -0.15836E-05   -0.15829E-05   256   0.152E-02    0.408E+00
DAV:   5    -0.214457156120E+03    0.93824E-01   -0.38605E+00   512   0.787E+00    0.410E+00
DAV:   6    -0.214402494876E+03    0.54661E-01   -0.33869E+00   512   0.490E+00    0.370E+00
DAV:   7    -0.214324991107E+03    0.77504E-01   -0.24587E+00   512   0.379E+00    0.219E+00
DAV:   8    -0.214282605590E+03    0.42386E-01   -0.56615E-01   512   0.280E+00    0.134E+00
DAV:   9    -0.214269655137E+03    0.12950E-01   -0.32665E-01   512   0.197E+00    0.755E-01
DAV:  10    -0.214264616924E+03    0.50382E-02   -0.81838E-02   512   0.997E-01    0.324E-01
DAV:  11    -0.214263766743E+03    0.85018E-03   -0.17906E-02   512   0.588E-01    0.181E-01
DAV:  12    -0.214263684881E+03    0.81862E-04   -0.47490E-03   512   0.261E-01    0.881E-02
DAV:  13    -0.214263639075E+03    0.45806E-04   -0.10470E-03   512   0.136E-01    0.389E-02
DAV:  14    -0.214263624736E+03    0.14339E-04   -0.19819E-04   512   0.639E-02    0.118E-02
DAV:  15    -0.214263626622E+03   -0.18861E-05   -0.15450E-05   512   0.173E-02
    172 T=   414. E= -.20513358E+03 F= -.21426363E+03 E0= -.21423045E+03  EK= 0.12851E+01 SP= 0.78E+01 SK= 0.25E-02
    173 T=   411. E= -.20509721E+03 F= -.21420734E+03 E0= -.21420734E+03  EK= 0.12739E+01 SP= 0.78E+01 SK= 0.75E-04
    174 T=   401. E= -.20509699E+03 F= -.21417947E+03 E0= -.21417947E+03  EK= 0.12431E+01 SP= 0.78E+01 SK= 0.88E-03
    175 T=   388. E= -.20509676E+03 F= -.21415366E+03 E0= -.21415366E+03  EK= 0.12043E+01 SP= 0.78E+01 SK= 0.41E-02
    176 T=   374. E= -.20509656E+03 F= -.21413206E+03 E0= -.21413206E+03  EK= 0.11615E+01 SP= 0.79E+01 SK= 0.87E-02
    177 T=   360. E= -.20509641E+03 F= -.21411634E+03 E0= -.21411634E+03  EK= 0.11182E+01 SP= 0.79E+01 SK= 0.14E-01
    178 T=   347. E= -.20509632E+03 F= -.21410762E+03 E0= -.21410762E+03  EK= 0.10774E+01 SP= 0.79E+01 SK= 0.19E-01
    179 T=   336. E= -.20509628E+03 F= -.21410642E+03 E0= -.21410642E+03  EK= 0.10409E+01 SP= 0.79E+01 SK= 0.23E-01
    180 T=   326. E= -.20509629E+03 F= -.21411266E+03 E0= -.21411266E+03  EK= 0.10099E+01 SP= 0.80E+01 SK= 0.27E-01
    181 T=   317. E= -.20509634E+03 F= -.21412565E+03 E0= -.21412565E+03  EK= 0.98451E+00 SP= 0.80E+01 SK= 0.29E-01
       N       E                     dE             d eps       ncg     rms          rms(c)
DAV:   1    -0.213417891159E+03    0.84573E+00   -0.61331E+02   256   0.985E+01
DAV:   2    -0.214358046266E+03   -0.94016E+00   -0.94015E+00   256   0.113E+01
DAV:   3    -0.214369080177E+03   -0.11034E-01   -0.11034E-01   512   0.103E+00
DAV:   4    -0.214369083032E+03   -0.28543E-05   -0.28547E-05   256   0.176E-02    0.423E+00
DAV:   5    -0.214440030042E+03   -0.70947E-01   -0.51194E+00   512   0.810E+00    0.570E+00
DAV:   6    -0.214206603670E+03    0.23343E+00   -0.43652E+00   512   0.397E+00    0.294E+00
DAV:   7    -0.214152442265E+03    0.54161E-01   -0.13853E+00   512   0.344E+00    0.209E+00
DAV:   8    -0.214158037473E+03   -0.55952E-02   -0.13296E+00   512   0.351E+00    0.219E+00
DAV:   9    -0.214100795259E+03    0.57242E-01   -0.38739E-01   512   0.210E+00    0.465E-01
DAV:  10    -0.214099421187E+03    0.13741E-02   -0.34240E-02   512   0.608E-01    0.358E-01
DAV:  11    -0.214098917376E+03    0.50381E-03   -0.22790E-02   512   0.492E-01    0.239E-01
DAV:  12    -0.214098529630E+03    0.38775E-03   -0.55955E-03   512   0.235E-01    0.129E-01
DAV:  13    -0.214098388432E+03    0.14120E-03   -0.15654E-03   512   0.130E-01    0.460E-02
DAV:  14    -0.214098368081E+03    0.20352E-04   -0.23428E-04   512   0.600E-02    0.175E-02
DAV:  15    -0.214098369059E+03   -0.97811E-06   -0.56232E-05   512   0.284E-02
    182 T=   307. E= -.20506134E+03 F= -.21409837E+03 E0= -.21406018E+03  EK= 0.95331E+00 SP= 0.81E+01 SK= 0.31E-01
    183 T=   298. E= -.20511743E+03 F= -.21416437E+03 E0= -.21416437E+03  EK= 0.92528E+00 SP= 0.81E+01 SK= 0.31E-01
    184 T=   294. E= -.20511753E+03 F= -.21418742E+03 E0= -.21418742E+03  EK= 0.91100E+00 SP= 0.81E+01 SK= 0.31E-01
    185 T=   290. E= -.20511763E+03 F= -.21421132E+03 E0= -.21421132E+03  EK= 0.89855E+00 SP= 0.82E+01 SK= 0.30E-01
    186 T=   286. E= -.20511771E+03 F= -.21423414E+03 E0= -.21423414E+03  EK= 0.88624E+00 SP= 0.82E+01 SK= 0.28E-01
    187 T=   281. E= -.20511776E+03 F= -.21425420E+03 E0= -.21425420E+03  EK= 0.87269E+00 SP= 0.82E+01 SK= 0.26E-01
    188 T=   276. E= -.20511778E+03 F= -.21427015E+03 E0= -.21427015E+03  EK= 0.85692E+00 SP= 0.83E+01 SK= 0.24E-01
    189 T=   270. E= -.20511777E+03 F= -.21428117E+03 E0= -.21428117E+03  EK= 0.83849E+00 SP= 0.83E+01 SK= 0.21E-01
    190 T=   264. E= -.20511773E+03 F= -.21428695E+03 E0= -.21428695E+03  EK= 0.81755E+00 SP= 0.83E+01 SK= 0.18E-01
    191 T=   256. E= -.20511767E+03 F= -.21428783E+03 E0= -.21428783E+03  EK= 0.79484E+00 SP= 0.84E+01 SK= 0.14E-01
       N       E                     dE             d eps       ncg     rms          rms(c)
DAV:   1    -0.213725009578E+03    0.37336E+00   -0.51192E+02   256   0.821E+01
DAV:   2    -0.214418558469E+03   -0.69355E+00   -0.69355E+00   256   0.945E+00
DAV:   3    -0.214426825647E+03   -0.82672E-02   -0.82672E-02   512   0.888E-01
DAV:   4    -0.214426827940E+03   -0.22936E-05   -0.22933E-05   256   0.171E-02    0.466E+00
DAV:   5    -0.214607372599E+03   -0.18054E+00   -0.74042E+00   512   0.763E+00    0.582E+00
DAV:   6    -0.214257146151E+03    0.35023E+00   -0.41740E+00   512   0.503E+00    0.404E+00
DAV:   7    -0.214260287207E+03   -0.31411E-02   -0.37530E+00   512   0.438E+00    0.339E+00
DAV:   8    -0.214205384242E+03    0.54903E-01   -0.19929E+00   512   0.349E+00    0.323E+00
DAV:   9    -0.214147337449E+03    0.58047E-01   -0.10277E+00   512   0.241E+00    0.143E+00
DAV:  10    -0.214124575145E+03    0.22762E-01   -0.14662E-01   512   0.151E+00    0.525E-01
DAV:  11    -0.214123656775E+03    0.91837E-03   -0.32725E-02   512   0.540E-01    0.455E-01
DAV:  12    -0.214122659808E+03    0.99697E-03   -0.23223E-02   512   0.442E-01    0.194E-01
DAV:  13    -0.214122507374E+03    0.15243E-03   -0.59648E-03   512   0.295E-01    0.191E-01
DAV:  14    -0.214122296782E+03    0.21059E-03   -0.25761E-03   512   0.135E-01    0.407E-02
DAV:  15    -0.214122272965E+03    0.23817E-04   -0.19076E-04   256   0.579E-02    0.196E-02
DAV:  16    -0.214122272881E+03    0.83905E-07   -0.48778E-05   512   0.258E-02
    192 T=   249. E= -.20495360E+03 F= -.21412227E+03 E0= -.21407638E+03  EK= 0.77317E+00 SP= 0.84E+01 SK= 0.11E-01
    193 T=   243. E= -.20511376E+03 F= -.21427834E+03 E0= -.21427834E+03  EK= 0.75255E+00 SP= 0.84E+01 SK= 0.71E-02
    194 T=   236. E= -.20511368E+03 F= -.21427065E+03 E0= -.21427065E+03  EK= 0.73237E+00 SP= 0.84E+01 SK= 0.39E-02
    195 T=   231. E= -.20511360E+03 F= -.21426319E+03 E0= -.21426319E+03  EK= 0.71651E+00 SP= 0.84E+01 SK= 0.15E-02
    196 T=   228. E= -.20511354E+03 F= -.21425747E+03 E0= -.21425747E+03  EK= 0.70653E+00 SP= 0.84E+01 SK= 0.19E-03
    197 T=   227. E= -.20511349E+03 F= -.21425473E+03 E0= -.21425473E+03  EK= 0.70372E+00 SP= 0.84E+01 SK= 0.15E-03
    198 T=   229. E= -.20511346E+03 F= -.21425580E+03 E0= -.21425580E+03  EK= 0.70891E+00 SP= 0.84E+01 SK= 0.15E-02
    199 T=   233. E= -.20511346E+03 F= -.21426099E+03 E0= -.21426099E+03  EK= 0.72242E+00 SP= 0.84E+01 SK= 0.40E-02
    200 T=   240. E= -.20511348E+03 F= -.21427004E+03 E0= -.21427004E+03  EK= 0.74398E+00 SP= 0.84E+01 SK= 0.73E-02
    201 T=   249. E= -.20511353E+03 F= -.21428214E+03 E0= -.21428214E+03  EK= 0.77271E+00 SP= 0.84E+01 SK= 0.11E-01
       N       E                     dE             d eps       ncg     rms          rms(c)
DAV:   1    -0.213863874722E+03    0.25840E+00   -0.43622E+02   256   0.747E+01
DAV:   2    -0.214445604824E+03   -0.58173E+00   -0.58173E+00   256   0.866E+00
DAV:   3    -0.214450857902E+03   -0.52531E-02   -0.52531E-02   512   0.746E-01
DAV:   4    -0.214450858835E+03   -0.93307E-06   -0.93348E-06   256   0.114E-02    0.377E+00
DAV:   5    -0.214379040053E+03    0.71819E-01   -0.27525E+00   512   0.529E+00    0.405E+00
DAV:   6    -0.214359311440E+03    0.19729E-01   -0.34991E+00   512   0.447E+00    0.373E+00
DAV:   7    -0.214307983128E+03    0.51328E-01   -0.22215E+00   512   0.430E+00    0.277E+00
DAV:   8    -0.214266189013E+03    0.41794E-01   -0.14799E+00   512   0.321E+00    0.219E+00
DAV:   9    -0.214243850364E+03    0.22339E-01   -0.91216E-01   512   0.254E+00    0.137E+00
DAV:  10    -0.214223251536E+03    0.20599E-01   -0.16330E-01   512   0.138E+00    0.513E-01
DAV:  11    -0.214221538467E+03    0.17131E-02   -0.24847E-02   512   0.609E-01    0.320E-01
DAV:  12    -0.214220940294E+03    0.59817E-03   -0.97319E-03   512   0.390E-01    0.141E-01
DAV:  13    -0.214220895868E+03    0.44425E-04   -0.41765E-03   512   0.267E-01    0.102E-01
DAV:  14    -0.214220810803E+03    0.85065E-04   -0.94099E-04   256   0.138E-01    0.372E-02
DAV:  15    -0.214220803660E+03    0.71436E-05   -0.20454E-04   512   0.666E-02    0.239E-02
DAV:  16    -0.214220802299E+03    0.13605E-05   -0.33063E-05   512   0.261E-02
    202 T=   261. E= -.20503563E+03 F= -.21422080E+03 E0= -.21417622E+03  EK= 0.80992E+00 SP= 0.84E+01 SK= 0.15E-01
    203 T=   276. E= -.20506337E+03 F= -.21426955E+03 E0= -.21426955E+03  EK= 0.85532E+00 SP= 0.83E+01 SK= 0.18E-01
    204 T=   292. E= -.20506351E+03 F= -.21429146E+03 E0= -.21429146E+03  EK= 0.90463E+00 SP= 0.83E+01 SK= 0.19E-01
    205 T=   307. E= -.20506367E+03 F= -.21430983E+03 E0= -.21430983E+03  EK= 0.95252E+00 SP= 0.83E+01 SK= 0.19E-01
    206 T=   321. E= -.20506383E+03 F= -.21432268E+03 E0= -.21432268E+03  EK= 0.99578E+00 SP= 0.82E+01 SK= 0.18E-01
    207 T=   332. E= -.20506396E+03 F= -.21432850E+03 E0= -.21432850E+03  EK= 0.10315E+01 SP= 0.82E+01 SK= 0.15E-01
    208 T=   341. E= -.20506404E+03 F= -.21432640E+03 E0= -.21432640E+03  EK= 0.10574E+01 SP= 0.82E+01 SK= 0.12E-01
    209 T=   346. E= -.20506406E+03 F= -.21431630E+03 E0= -.21431630E+03  EK= 0.10723E+01 SP= 0.82E+01 SK= 0.88E-02
    210 T=   347. E= -.20506400E+03 F= -.21429894E+03 E0= -.21429894E+03  EK= 0.10762E+01 SP= 0.82E+01 SK= 0.59E-02
    211 T=   345. E= -.20506389E+03 F= -.21427582E+03 E0= -.21427582E+03  EK= 0.10701E+01 SP= 0.81E+01 SK= 0.36E-02
       N       E                     dE             d eps       ncg     rms          rms(c)
DAV:   1    -0.213587029769E+03    0.63377E+00   -0.59770E+02   256   0.905E+01
DAV:   2    -0.214426964097E+03   -0.83993E+00   -0.83993E+00   256   0.105E+01
DAV:   3    -0.214434910600E+03   -0.79465E-02   -0.79465E-02   512   0.922E-01
DAV:   4    -0.214434912141E+03   -0.15411E-05   -0.15417E-05   256   0.145E-02    0.466E+00
DAV:   5    -0.214559414230E+03   -0.12450E+00   -0.71304E+00   512   0.928E+00    0.547E+00
DAV:   6    -0.214207116991E+03    0.35230E+00   -0.32580E+00   512   0.499E+00    0.293E+00
DAV:   7    -0.214223784284E+03   -0.16667E-01   -0.21734E+00   512   0.449E+00    0.292E+00
DAV:   8    -0.214174519318E+03    0.49265E-01   -0.15768E+00   512   0.330E+00    0.199E+00
DAV:   9    -0.214134880166E+03    0.39639E-01   -0.42393E-01   512   0.208E+00    0.759E-01
DAV:  10    -0.214133587880E+03    0.12923E-02   -0.99518E-02   512   0.114E+00    0.686E-01
DAV:  11    -0.214129330185E+03    0.42577E-02   -0.36001E-02   512   0.713E-01    0.193E-01
DAV:  12    -0.214129123214E+03    0.20697E-03   -0.44251E-03   512   0.267E-01    0.980E-02
DAV:  13    -0.214129083660E+03    0.39554E-04   -0.19916E-03   512   0.193E-01    0.866E-02
DAV:  14    -0.214129048187E+03    0.35472E-04   -0.90027E-04   512   0.113E-01    0.378E-02
DAV:  15    -0.214129038413E+03    0.97747E-05   -0.18414E-04   512   0.543E-02    0.186E-02
DAV:  16    -0.214129037780E+03    0.63304E-06   -0.45924E-05   512   0.307E-02
    212 T=   338. E= -.20495017E+03 F= -.21412904E+03 E0= -.21408503E+03  EK= 0.10499E+01 SP= 0.81E+01 SK= 0.20E-02
    213 T=   330. E= -.20507583E+03 F= -.21422013E+03 E0= -.21422013E+03  EK= 0.10244E+01 SP= 0.81E+01 SK= 0.10E-02
    214 T=   323. E= -.20507567E+03 F= -.21419253E+03 E0= -.21419253E+03  EK= 0.10034E+01 SP= 0.81E+01 SK= 0.50E-03
    215 T=   317. E= -.20507553E+03 F= -.21416874E+03 E0= -.21416874E+03  EK= 0.98397E+00 SP= 0.81E+01 SK= 0.22E-03
       N       E                     dE             d eps       ncg     rms          rms(c)
DAV:   1    -0.213883490848E+03    0.24555E+00   -0.98019E+01   256   0.375E+01
DAV:   2    -0.214017227875E+03   -0.13374E+00   -0.13374E+00   512   0.423E+00
DAV:   3    -0.214017244486E+03   -0.16611E-04   -0.16611E-04   256   0.496E-02
DAV:   4    -0.214017244903E+03   -0.41706E-06   -0.41666E-06   512   0.511E-03    0.171E+00
DAV:   5    -0.213995466351E+03    0.21779E-01   -0.39105E-01   512   0.255E+00    0.170E+00
DAV:   6    -0.213994977349E+03    0.48900E-03   -0.57699E-01   512   0.200E+00    0.138E+00
DAV:   7    -0.213983687600E+03    0.11290E-01   -0.26502E-01   512   0.179E+00    0.108E+00
DAV:   8    -0.213996625021E+03   -0.12937E-01   -0.43775E-01   512   0.157E+00    0.209E+00
DAV:   9    -0.213977433908E+03    0.19191E-01   -0.33517E-01   512   0.122E+00    0.673E-01
DAV:  10    -0.213972908267E+03    0.45256E-02   -0.40651E-02   512   0.601E-01    0.211E-01
DAV:  11    -0.213972560297E+03    0.34797E-03   -0.60881E-03   512   0.274E-01    0.141E-01
DAV:  12    -0.213972408503E+03    0.15179E-03   -0.25621E-03   512   0.174E-01    0.614E-02
DAV:  13    -0.213972383047E+03    0.25456E-04   -0.35407E-04   512   0.713E-02    0.194E-02
DAV:  14    -0.213972379962E+03    0.30843E-05   -0.52746E-05   512   0.280E-02
    216 T=   309. E= -.20490645E+03 F= -.21397238E+03 E0= -.21392697E+03  EK= 0.95944E+00 SP= 0.81E+01 SK= 0.92E-04
    217 T=   300. E= -.20493083E+03 F= -.21396741E+03 E0= -.21396741E+03  EK= 0.93198E+00 SP= 0.81E+01 SK= 0.61E-04
    218 T=   294. E= -.20493082E+03 F= -.21394565E+03 E0= -.21394565E+03  EK= 0.91200E+00 SP= 0.81E+01 SK= 0.77E-04
    219 T=   290. E= -.20493084E+03 F= -.21393103E+03 E0= -.21393103E+03  EK= 0.89948E+00 SP= 0.81E+01 SK= 0.13E-03
    220 T=   288. E= -.20493090E+03 F= -.21392313E+03 E0= -.21392313E+03  EK= 0.89432E+00 SP= 0.81E+01 SK= 0.24E-03
    221 T=   289. E= -.20493099E+03 F= -.21392101E+03 E0= -.21392101E+03  EK= 0.89571E+00 SP= 0.81E+01 SK= 0.38E-03
    222 T=   291. E= -.20493110E+03 F= -.21392326E+03 E0= -.21392326E+03  EK= 0.90227E+00 SP= 0.81E+01 SK= 0.53E-03
    223 T=   294. E= -.20493120E+03 F= -.21392829E+03 E0= -.21392829E+03  EK= 0.91228E+00 SP= 0.81E+01 SK= 0.66E-03
    224 T=   298. E= -.20493130E+03 F= -.21393446E+03 E0= -.21393446E+03  EK= 0.92391E+00 SP= 0.81E+01 SK= 0.72E-03
    225 T=   302. E= -.20493137E+03 F= -.21394036E+03 E0= -.21394036E+03  EK= 0.93548E+00 SP= 0.81E+01 SK= 0.72E-03
       N       E                     dE             d eps       ncg     rms          rms(c)
DAV:   1    -0.213376030575E+03    0.59635E+00   -0.51380E+02   256   0.882E+01
DAV:   2    -0.214152388635E+03   -0.77636E+00   -0.77635E+00   512   0.102E+01
DAV:   3    -0.214152558461E+03   -0.16983E-03   -0.16983E-03   256   0.148E-01
DAV:   4    -0.214152562893E+03   -0.44323E-05   -0.44323E-05   512   0.145E-02    0.469E+00
DAV:   5    -0.214377336099E+03   -0.22477E+00   -0.87874E+00   512   0.115E+01    0.618E+00
DAV:   6    -0.214067769453E+03    0.30957E+00   -0.51281E+00   512   0.481E+00    0.416E+00
DAV:   7    -0.213928027093E+03    0.13974E+00   -0.23383E+00   512   0.368E+00    0.235E+00
DAV:   8    -0.213920784273E+03    0.72428E-02   -0.98247E-01   512   0.337E+00    0.231E+00
DAV:   9    -0.213908433138E+03    0.12351E-01   -0.12040E+00   512   0.267E+00    0.192E+00
DAV:  10    -0.213882303581E+03    0.26130E-01   -0.32631E-01   512   0.144E+00    0.109E+00
DAV:  11    -0.213874982114E+03    0.73215E-02   -0.12877E-01   512   0.963E-01    0.611E-01
DAV:  12    -0.213872128935E+03    0.28532E-02   -0.22039E-02   512   0.550E-01    0.216E-01
DAV:  13    -0.213871959288E+03    0.16965E-03   -0.53104E-03   512   0.240E-01    0.149E-01
DAV:  14    -0.213871810415E+03    0.14887E-03   -0.21365E-03   512   0.149E-01    0.766E-02
DAV:  15    -0.213871763922E+03    0.46492E-04   -0.31042E-04   512   0.612E-02    0.208E-02
DAV:  16    -0.213871761952E+03    0.19701E-05   -0.30817E-05   512   0.218E-02
    226 T=   304. E= -.20486131E+03 F= -.21387176E+03 E0= -.21381991E+03  EK= 0.94261E+00 SP= 0.81E+01 SK= 0.64E-03
    227 T=   305. E= -.20493718E+03 F= -.21394677E+03 E0= -.21394677E+03  EK= 0.94709E+00 SP= 0.81E+01 SK= 0.56E-03
    228 T=   307. E= -.20493714E+03 F= -.21394659E+03 E0= -.21394659E+03  EK= 0.95185E+00 SP= 0.81E+01 SK= 0.45E-03
    229 T=   308. E= -.20493708E+03 F= -.21394502E+03 E0= -.21394502E+03  EK= 0.95470E+00 SP= 0.81E+01 SK= 0.34E-03
    230 T=   308. E= -.20493700E+03 F= -.21394315E+03 E0= -.21394315E+03  EK= 0.95662E+00 SP= 0.80E+01 SK= 0.23E-03
    231 T=   309. E= -.20493691E+03 F= -.21394231E+03 E0= -.21394231E+03  EK= 0.95887E+00 SP= 0.80E+01 SK= 0.14E-03
    232 T=   310. E= -.20493684E+03 F= -.21394385E+03 E0= -.21394385E+03  EK= 0.96273E+00 SP= 0.80E+01 SK= 0.69E-04
    233 T=   312. E= -.20493679E+03 F= -.21394893E+03 E0= -.21394893E+03  EK= 0.96923E+00 SP= 0.80E+01 SK= 0.17E-04
    234 T=   316. E= -.20493678E+03 F= -.21395829E+03 E0= -.21395829E+03  EK= 0.97895E+00 SP= 0.80E+01 SK= 0.11E-05
    235 T=   320. E= -.20493680E+03 F= -.21397218E+03 E0= -.21397218E+03  EK= 0.99185E+00 SP= 0.80E+01 SK= 0.56E-04
       N       E                     dE             d eps       ncg     rms          rms(c)
DAV:   1    -0.213252068378E+03    0.61970E+00   -0.54133E+02   256   0.901E+01
DAV:   2    -0.214062892060E+03   -0.81082E+00   -0.81082E+00   256   0.105E+01
DAV:   3    -0.214071950649E+03   -0.90586E-02   -0.90586E-02   512   0.941E-01
DAV:   4    -0.214071952408E+03   -0.17591E-05   -0.17593E-05   256   0.157E-02    0.410E+00
DAV:   5    -0.214159620387E+03   -0.87668E-01   -0.49764E+00   512   0.602E+00    0.546E+00
DAV:   6    -0.213942845635E+03    0.21677E+00   -0.45358E+00   512   0.430E+00    0.388E+00
DAV:   7    -0.214002738706E+03   -0.59893E-01   -0.37944E+00   512   0.317E+00    0.397E+00
DAV:   8    -0.213862793942E+03    0.13994E+00   -0.15157E+00   512   0.274E+00    0.209E+00
DAV:   9    -0.213823519796E+03    0.39274E-01   -0.65387E-01   512   0.231E+00    0.137E+00
DAV:  10    -0.213814469696E+03    0.90501E-02   -0.14014E-01   512   0.108E+00    0.626E-01
DAV:  11    -0.213811830291E+03    0.26394E-02   -0.48639E-02   512   0.660E-01    0.405E-01
DAV:  12    -0.213810856038E+03    0.97425E-03   -0.13317E-02   512   0.340E-01    0.156E-01
DAV:  13    -0.213810830045E+03    0.25993E-04   -0.34719E-03   512   0.207E-01    0.117E-01
DAV:  14    -0.213810717483E+03    0.11256E-03   -0.11637E-03   512   0.110E-01    0.334E-02
DAV:  15    -0.213810710430E+03    0.70535E-05   -0.11935E-04   256   0.369E-02    0.147E-02
DAV:  16    -0.213810710986E+03   -0.55646E-06   -0.30829E-05   512   0.177E-02
    236 T=   322. E= -.20476673E+03 F= -.21381071E+03 E0= -.21375877E+03  EK= 0.99779E+00 SP= 0.80E+01 SK= 0.24E-03
    237 T=   324. E= -.20495514E+03 F= -.21401011E+03 E0= -.21401011E+03  EK= 0.10043E+01 SP= 0.81E+01 SK= 0.55E-03
    238 T=   329. E= -.20495523E+03 F= -.21403233E+03 E0= -.21403233E+03  EK= 0.10198E+01 SP= 0.81E+01 SK= 0.11E-02
    239 T=   333. E= -.20495533E+03 F= -.21405547E+03 E0= -.21405547E+03  EK= 0.10337E+01 SP= 0.81E+01 SK= 0.20E-02
    240 T=   336. E= -.20495542E+03 F= -.21407790E+03 E0= -.21407790E+03  EK= 0.10439E+01 SP= 0.81E+01 SK= 0.33E-02
    241 T=   338. E= -.20495548E+03 F= -.21409804E+03 E0= -.21409804E+03  EK= 0.10485E+01 SP= 0.81E+01 SK= 0.50E-02
    242 T=   337. E= -.20495550E+03 F= -.21411452E+03 E0= -.21411452E+03  EK= 0.10462E+01 SP= 0.81E+01 SK= 0.72E-02
    243 T=   334. E= -.20495549E+03 F= -.21412640E+03 E0= -.21412640E+03  EK= 0.10362E+01 SP= 0.81E+01 SK= 0.95E-02
    244 T=   328. E= -.20495543E+03 F= -.21413320E+03 E0= -.21413320E+03  EK= 0.10185E+01 SP= 0.81E+01 SK= 0.12E-01
    245 T=   320. E= -.20495533E+03 F= -.21413499E+03 E0= -.21413499E+03  EK= 0.99393E+00 SP= 0.82E+01 SK= 0.14E-01
       N       E                     dE             d eps       ncg     rms          rms(c)
DAV:   1    -0.213197454882E+03    0.61326E+00   -0.59554E+02   256   0.931E+01
DAV:   2    -0.214063592453E+03   -0.86614E+00   -0.86613E+00   256   0.108E+01
DAV:   3    -0.214071583378E+03   -0.79909E-02   -0.79909E-02   512   0.927E-01
DAV:   4    -0.214071585240E+03   -0.18623E-05   -0.18624E-05   256   0.143E-02    0.442E+00
DAV:   5    -0.214015582244E+03    0.56003E-01   -0.38253E+00   512   0.582E+00    0.428E+00
DAV:   6    -0.213890224706E+03    0.12536E+00   -0.29702E+00   512   0.501E+00    0.341E+00
DAV:   7    -0.213898290926E+03   -0.80662E-02   -0.31059E+00   512   0.454E+00    0.308E+00
DAV:   8    -0.213833100823E+03    0.65190E-01   -0.14176E+00   512   0.321E+00    0.207E+00
DAV:   9    -0.213789900304E+03    0.43201E-01   -0.42449E-01   512   0.177E+00    0.922E-01
DAV:  10    -0.213781629759E+03    0.82705E-02   -0.61080E-02   512   0.966E-01    0.462E-01
DAV:  11    -0.213780430498E+03    0.11993E-02   -0.20264E-02   512   0.474E-01    0.229E-01
DAV:  12    -0.213780435317E+03   -0.48190E-05   -0.10729E-02   512   0.305E-01    0.201E-01
DAV:  13    -0.213780170188E+03    0.26513E-03   -0.44053E-03   512   0.228E-01    0.105E-01
DAV:  14    -0.213780089011E+03    0.81177E-04   -0.13459E-03   512   0.116E-01    0.488E-02
DAV:  15    -0.213780074408E+03    0.14603E-04   -0.30417E-04   512   0.502E-02    0.176E-02
DAV:  16    -0.213780072954E+03    0.14539E-05   -0.31473E-05   512   0.189E-02
    246 T=   309. E= -.20460805E+03 F= -.21378007E+03 E0= -.21373320E+03  EK= 0.95892E+00 SP= 0.82E+01 SK= 0.15E-01
    247 T=   297. E= -.20496461E+03 F= -.21412707E+03 E0= -.21412707E+03  EK= 0.92236E+00 SP= 0.82E+01 SK= 0.16E-01
    248 T=   287. E= -.20496449E+03 F= -.21412004E+03 E0= -.21412004E+03  EK= 0.88956E+00 SP= 0.83E+01 SK= 0.15E-01
    249 T=   277. E= -.20496439E+03 F= -.21411295E+03 E0= -.21411295E+03  EK= 0.85855E+00 SP= 0.83E+01 SK= 0.13E-01
    250 T=   268. E= -.20496430E+03 F= -.21410753E+03 E0= -.21410753E+03  EK= 0.83157E+00 SP= 0.83E+01 SK= 0.11E-01
    251 T=   261. E= -.20496423E+03 F= -.21410537E+03 E0= -.21410537E+03  EK= 0.81057E+00 SP= 0.83E+01 SK= 0.88E-02
    252 T=   257. E= -.20496419E+03 F= -.21410782E+03 E0= -.21410782E+03  EK= 0.79708E+00 SP= 0.83E+01 SK= 0.63E-02
    253 T=   255. E= -.20496417E+03 F= -.21411587E+03 E0= -.21411587E+03  EK= 0.79213E+00 SP= 0.84E+01 SK= 0.40E-02
    254 T=   257. E= -.20496417E+03 F= -.21413007E+03 E0= -.21413007E+03  EK= 0.79618E+00 SP= 0.84E+01 SK= 0.23E-02
    255 T=   261. E= -.20496419E+03 F= -.21415046E+03 E0= -.21415046E+03  EK= 0.80912E+00 SP= 0.84E+01 SK= 0.11E-02
[...]
   2878 T=   333. E= -.20252206E+03 F= -.21410401E+03 E0= -.21410401E+03  EK= 0.10318E+01 SP= 0.11E+02 SK= 0.49E-01
   2879 T=   318. E= -.20252200E+03 F= -.21411288E+03 E0= -.21411288E+03  EK= 0.98787E+00 SP= 0.11E+02 SK= 0.54E-01
   2880 T=   305. E= -.20252197E+03 F= -.21412430E+03 E0= -.21412430E+03  EK= 0.94713E+00 SP= 0.11E+02 SK= 0.56E-01
   2881 T=   293. E= -.20252197E+03 F= -.21413812E+03 E0= -.21413812E+03  EK= 0.91042E+00 SP= 0.11E+02 SK= 0.56E-01
   2882 T=   283. E= -.20252198E+03 F= -.21415409E+03 E0= -.21415409E+03  EK= 0.87815E+00 SP= 0.11E+02 SK= 0.54E-01
   2883 T=   274. E= -.20252201E+03 F= -.21417182E+03 E0= -.21417182E+03  EK= 0.85041E+00 SP= 0.11E+02 SK= 0.50E-01
   2884 T=   267. E= -.20252204E+03 F= -.21419086E+03 E0= -.21419086E+03  EK= 0.82707E+00 SP= 0.11E+02 SK= 0.46E-01
   2885 T=   260. E= -.20252207E+03 F= -.21421073E+03 E0= -.21421073E+03  EK= 0.80784E+00 SP= 0.11E+02 SK= 0.40E-01
   2886 T=   255. E= -.20252211E+03 F= -.21423093E+03 E0= -.21423093E+03  EK= 0.79235E+00 SP= 0.11E+02 SK= 0.35E-01
   2887 T=   251. E= -.20252213E+03 F= -.21425100E+03 E0= -.21425100E+03  EK= 0.78019E+00 SP= 0.11E+02 SK= 0.29E-01
   2888 T=   249. E= -.20252216E+03 F= -.21427052E+03 E0= -.21427052E+03  EK= 0.77100E+00 SP= 0.11E+02 SK= 0.23E-01
   2889 T=   246. E= -.20252217E+03 F= -.21428913E+03 E0= -.21428913E+03  EK= 0.76440E+00 SP= 0.11E+02 SK= 0.18E-01
   2890 T=   245. E= -.20252219E+03 F= -.21430653E+03 E0= -.21430653E+03  EK= 0.76013E+00 SP= 0.11E+02 SK= 0.13E-01
   2891 T=   244. E= -.20252219E+03 F= -.21432251E+03 E0= -.21432251E+03  EK= 0.75793E+00 SP= 0.11E+02 SK= 0.88E-02
   2892 T=   244. E= -.20252219E+03 F= -.21433694E+03 E0= -.21433694E+03  EK= 0.75767E+00 SP= 0.11E+02 SK= 0.55E-02
   2893 T=   245. E= -.20252219E+03 F= -.21434977E+03 E0= -.21434977E+03  EK= 0.75925E+00 SP= 0.11E+02 SK= 0.30E-02
   2894 T=   246. E= -.20252218E+03 F= -.21436102E+03 E0= -.21436102E+03  EK= 0.76266E+00 SP= 0.11E+02 SK= 0.12E-02
   2895 T=   248. E= -.20252216E+03 F= -.21437082E+03 E0= -.21437082E+03  EK= 0.76797E+00 SP= 0.11E+02 SK= 0.26E-03
   2896 T=   250. E= -.20252214E+03 F= -.21437934E+03 E0= -.21437934E+03  EK= 0.77525E+00 SP= 0.11E+02 SK= 0.44E-05
   2897 T=   253. E= -.20252212E+03 F= -.21438677E+03 E0= -.21438677E+03  EK= 0.78464E+00 SP= 0.11E+02 SK= 0.37E-03
   2898 T=   257. E= -.20252211E+03 F= -.21439335E+03 E0= -.21439335E+03  EK= 0.79622E+00 SP= 0.11E+02 SK= 0.13E-02
   2899 T=   261. E= -.20252210E+03 F= -.21439924E+03 E0= -.21439924E+03  EK= 0.81003E+00 SP= 0.11E+02 SK= 0.25E-02
   2900 T=   266. E= -.20252209E+03 F= -.21440451E+03 E0= -.21440451E+03  EK= 0.82594E+00 SP= 0.11E+02 SK= 0.39E-02
   2901 T=   272. E= -.20252210E+03 F= -.21440913E+03 E0= -.21440913E+03  EK= 0.84369E+00 SP= 0.11E+02 SK= 0.54E-02
   2902 T=   278. E= -.20252213E+03 F= -.21441290E+03 E0= -.21441290E+03  EK= 0.86281E+00 SP= 0.11E+02 SK= 0.68E-02
   2903 T=   285. E= -.20252216E+03 F= -.21441549E+03 E0= -.21441549E+03  EK= 0.88264E+00 SP= 0.11E+02 SK= 0.79E-02
   2904 T=   291. E= -.20252220E+03 F= -.21441649E+03 E0= -.21441649E+03  EK= 0.90236E+00 SP= 0.11E+02 SK= 0.87E-02
   2905 T=   297. E= -.20252225E+03 F= -.21441541E+03 E0= -.21441541E+03  EK= 0.92106E+00 SP= 0.11E+02 SK= 0.91E-02
   2906 T=   302. E= -.20252229E+03 F= -.21441185E+03 E0= -.21441185E+03  EK= 0.93786E+00 SP= 0.11E+02 SK= 0.90E-02
   2907 T=   307. E= -.20252233E+03 F= -.21440546E+03 E0= -.21440546E+03  EK= 0.95197E+00 SP= 0.11E+02 SK= 0.87E-02
   2908 T=   310. E= -.20252235E+03 F= -.21439607E+03 E0= -.21439607E+03  EK= 0.96280E+00 SP= 0.11E+02 SK= 0.81E-02
   2909 T=   313. E= -.20252236E+03 F= -.21438378E+03 E0= -.21438378E+03  EK= 0.97006E+00 SP= 0.11E+02 SK= 0.73E-02
   2910 T=   314. E= -.20252234E+03 F= -.21436897E+03 E0= -.21436897E+03  EK= 0.97388E+00 SP= 0.11E+02 SK= 0.65E-02
   2911 T=   314. E= -.20252230E+03 F= -.21435233E+03 E0= -.21435233E+03  EK= 0.97478E+00 SP= 0.11E+02 SK= 0.57E-02
   2912 T=   314. E= -.20252224E+03 F= -.21433484E+03 E0= -.21433484E+03  EK= 0.97367E+00 SP= 0.11E+02 SK= 0.49E-02
   2913 T=   313. E= -.20252216E+03 F= -.21431774E+03 E0= -.21431774E+03  EK= 0.97176E+00 SP= 0.11E+02 SK= 0.42E-02
   2914 T=   313. E= -.20252209E+03 F= -.21430236E+03 E0= -.21430236E+03  EK= 0.97045E+00 SP= 0.11E+02 SK= 0.36E-02
   2915 T=   313. E= -.20252202E+03 F= -.21429006E+03 E0= -.21429006E+03  EK= 0.97113E+00 SP= 0.11E+02 SK= 0.31E-02
   2916 T=   314. E= -.20252196E+03 F= -.21428209E+03 E0= -.21428209E+03  EK= 0.97506E+00 SP= 0.11E+02 SK= 0.25E-02
   2917 T=   317. E= -.20252192E+03 F= -.21427942E+03 E0= -.21427942E+03  EK= 0.98313E+00 SP= 0.11E+02 SK= 0.20E-02
   2918 T=   321. E= -.20252192E+03 F= -.21428268E+03 E0= -.21428268E+03  EK= 0.99577E+00 SP= 0.11E+02 SK= 0.14E-02
   2919 T=   326. E= -.20252195E+03 F= -.21429200E+03 E0= -.21429200E+03  EK= 0.10128E+01 SP= 0.11E+02 SK= 0.85E-03
   2920 T=   333. E= -.20252202E+03 F= -.21430702E+03 E0= -.21430702E+03  EK= 0.10334E+01 SP= 0.11E+02 SK= 0.34E-03
   2921 T=   340. E= -.20252212E+03 F= -.21432684E+03 E0= -.21432684E+03  EK= 0.10559E+01 SP= 0.11E+02 SK= 0.25E-04
   2922 T=   348. E= -.20252225E+03 F= -.21435006E+03 E0= -.21435006E+03  EK= 0.10782E+01 SP= 0.11E+02 SK= 0.12E-03
   2923 T=   354. E= -.20252238E+03 F= -.21437494E+03 E0= -.21437494E+03  EK= 0.10979E+01 SP= 0.11E+02 SK= 0.86E-03
   2924 T=   359. E= -.20252250E+03 F= -.21439948E+03 E0= -.21439948E+03  EK= 0.11122E+01 SP= 0.11E+02 SK= 0.25E-02
   2925 T=   361. E= -.20252259E+03 F= -.21442167E+03 E0= -.21442167E+03  EK= 0.11187E+01 SP= 0.11E+02 SK= 0.51E-02
   2926 T=   360. E= -.20252264E+03 F= -.21443964E+03 E0= -.21443964E+03  EK= 0.11153E+01 SP= 0.11E+02 SK= 0.87E-02
   2927 T=   355. E= -.20252264E+03 F= -.21445184E+03 E0= -.21445184E+03  EK= 0.11009E+01 SP= 0.11E+02 SK= 0.13E-01
   2928 T=   347. E= -.20252257E+03 F= -.21445720E+03 E0= -.21445720E+03  EK= 0.10752E+01 SP= 0.11E+02 SK= 0.18E-01
   2929 T=   335. E= -.20252246E+03 F= -.21445530E+03 E0= -.21445530E+03  EK= 0.10391E+01 SP= 0.11E+02 SK= 0.22E-01
   2930 T=   321. E= -.20252232E+03 F= -.21444636E+03 E0= -.21444636E+03  EK= 0.99439E+00 SP= 0.11E+02 SK= 0.25E-01
   2931 T=   304. E= -.20252217E+03 F= -.21443121E+03 E0= -.21443121E+03  EK= 0.94348E+00 SP= 0.11E+02 SK= 0.27E-01
   2932 T=   287. E= -.20252203E+03 F= -.21441120E+03 E0= -.21441120E+03  EK= 0.88932E+00 SP= 0.11E+02 SK= 0.26E-01
   2933 T=   269. E= -.20252191E+03 F= -.21438804E+03 E0= -.21438804E+03  EK= 0.83497E+00 SP= 0.11E+02 SK= 0.24E-01
   2934 T=   253. E= -.20252182E+03 F= -.21436369E+03 E0= -.21436369E+03  EK= 0.78336E+00 SP= 0.11E+02 SK= 0.20E-01
   2935 T=   238. E= -.20252176E+03 F= -.21434013E+03 E0= -.21434013E+03  EK= 0.73712E+00 SP= 0.11E+02 SK= 0.14E-01
   2936 T=   225. E= -.20252171E+03 F= -.21431928E+03 E0= -.21431928E+03  EK= 0.69851E+00 SP= 0.11E+02 SK= 0.91E-02
   2937 T=   216. E= -.20252169E+03 F= -.21430281E+03 E0= -.21430281E+03  EK= 0.66927E+00 SP= 0.11E+02 SK= 0.45E-02
   2938 T=   210. E= -.20252167E+03 F= -.21429203E+03 E0= -.21429203E+03  EK= 0.65070E+00 SP= 0.11E+02 SK= 0.13E-02
   2939 T=   207. E= -.20252167E+03 F= -.21428782E+03 E0= -.21428782E+03  EK= 0.64363E+00 SP= 0.11E+02 SK= 0.89E-05
   2940 T=   209. E= -.20252166E+03 F= -.21429059E+03 E0= -.21429059E+03  EK= 0.64840E+00 SP= 0.11E+02 SK= 0.90E-03
   2941 T=   214. E= -.20252167E+03 F= -.21430021E+03 E0= -.21430021E+03  EK= 0.66491E+00 SP= 0.11E+02 SK= 0.38E-02
   2942 T=   223. E= -.20252169E+03 F= -.21431600E+03 E0= -.21431600E+03  EK= 0.69258E+00 SP= 0.11E+02 SK= 0.82E-02
   2943 T=   235. E= -.20252174E+03 F= -.21433681E+03 E0= -.21433681E+03  EK= 0.73026E+00 SP= 0.11E+02 SK= 0.13E-01
   2944 T=   250. E= -.20252181E+03 F= -.21436099E+03 E0= -.21436099E+03  EK= 0.77626E+00 SP= 0.11E+02 SK= 0.19E-01
   2945 T=   267. E= -.20252192E+03 F= -.21438652E+03 E0= -.21438652E+03  EK= 0.82827E+00 SP= 0.11E+02 SK= 0.23E-01
   2946 T=   285. E= -.20252207E+03 F= -.21441112E+03 E0= -.21441112E+03  EK= 0.88339E+00 SP= 0.11E+02 SK= 0.26E-01
   2947 T=   302. E= -.20252225E+03 F= -.21443235E+03 E0= -.21443235E+03  EK= 0.93822E+00 SP= 0.11E+02 SK= 0.26E-01
   2948 T=   319. E= -.20252245E+03 F= -.21444781E+03 E0= -.21444781E+03  EK= 0.98902E+00 SP= 0.11E+02 SK= 0.25E-01
   2949 T=   333. E= -.20252266E+03 F= -.21445536E+03 E0= -.21445536E+03  EK= 0.10321E+01 SP= 0.11E+02 SK= 0.22E-01
   2950 T=   343. E= -.20252283E+03 F= -.21445326E+03 E0= -.21445326E+03  EK= 0.10640E+01 SP= 0.11E+02 SK= 0.18E-01
   2951 T=   349. E= -.20252295E+03 F= -.21444040E+03 E0= -.21444040E+03  EK= 0.10821E+01 SP= 0.11E+02 SK= 0.14E-01
   2952 T=   350. E= -.20252300E+03 F= -.21441642E+03 E0= -.21441642E+03  EK= 0.10852E+01 SP= 0.11E+02 SK= 0.98E-02
   2953 T=   346. E= -.20252297E+03 F= -.21438179E+03 E0= -.21438179E+03  EK= 0.10731E+01 SP= 0.11E+02 SK= 0.66E-02
   2954 T=   338. E= -.20252286E+03 F= -.21433781E+03 E0= -.21433781E+03  EK= 0.10473E+01 SP= 0.11E+02 SK= 0.43E-02
   2955 T=   326. E= -.20252270E+03 F= -.21428657E+03 E0= -.21428657E+03  EK= 0.10104E+01 SP= 0.11E+02 SK= 0.29E-02
   2956 T=   312. E= -.20252252E+03 F= -.21423074E+03 E0= -.21423074E+03  EK= 0.96637E+00 SP= 0.11E+02 SK= 0.22E-02
       N       E                     dE             d eps       ncg     rms          rms(c)
DAV:   1    -0.192108130691E+03    0.21983E+02   -0.95125E+03   256   0.393E+02
DAV:   2    -0.216112645097E+03   -0.24005E+02   -0.24004E+02   256   0.549E+01
DAV:   3    -0.216608976000E+03   -0.49633E+00   -0.49633E+00   512   0.697E+00
DAV:   4    -0.216609127468E+03   -0.15147E-03   -0.15147E-03   256   0.119E-01    0.121E+01
DAV:   5    -0.215408833331E+03    0.12003E+01   -0.22744E+01   512   0.138E+01    0.989E+00
DAV:   6    -0.214787707238E+03    0.62113E+00   -0.18732E+01   512   0.113E+01    0.637E+00
DAV:   7    -0.214383907419E+03    0.40380E+00   -0.54745E+00   512   0.800E+00    0.388E+00
DAV:   8    -0.214267283687E+03    0.11662E+00   -0.21277E+00   512   0.421E+00    0.216E+00
DAV:   9    -0.214257281579E+03    0.10002E-01   -0.75520E-01   512   0.269E+00    0.128E+00
DAV:  10    -0.214249946345E+03    0.73352E-02   -0.23757E-01   512   0.131E+00    0.697E-01
DAV:  11    -0.214250424497E+03   -0.47815E-03   -0.12594E-01   512   0.116E+00    0.628E-01
DAV:  12    -0.214247031239E+03    0.33933E-02   -0.41563E-02   512   0.642E-01    0.126E-01
DAV:  13    -0.214246959167E+03    0.72072E-04   -0.18077E-03   512   0.189E-01    0.658E-02
DAV:  14    -0.214246954266E+03    0.49010E-05   -0.42988E-04   512   0.987E-02    0.341E-02
DAV:  15    -0.214246964984E+03   -0.10718E-04   -0.80884E-05   512   0.394E-02    0.187E-02
DAV:  16    -0.214246966929E+03   -0.19443E-05   -0.32680E-05   512   0.220E-02
   2957 T=   297. E= -.20259317E+03 F= -.21424697E+03 E0= -.21421734E+03  EK= 0.92204E+00 SP= 0.11E+02 SK= 0.21E-02
   2958 T=   283. E= -.20251648E+03 F= -.21411707E+03 E0= -.21411707E+03  EK= 0.87863E+00 SP= 0.11E+02 SK= 0.24E-02
   2959 T=   270. E= -.20251633E+03 F= -.21406536E+03 E0= -.21406536E+03  EK= 0.83753E+00 SP= 0.11E+02 SK= 0.33E-02
   2960 T=   260. E= -.20251621E+03 F= -.21402099E+03 E0= -.21402099E+03  EK= 0.80527E+00 SP= 0.11E+02 SK= 0.49E-02
   2961 T=   253. E= -.20251611E+03 F= -.21398617E+03 E0= -.21398617E+03  EK= 0.78473E+00 SP= 0.11E+02 SK= 0.73E-02
   2962 T=   251. E= -.20251605E+03 F= -.21396250E+03 E0= -.21396250E+03  EK= 0.77802E+00 SP= 0.11E+02 SK= 0.11E-01
   2963 T=   253. E= -.20251601E+03 F= -.21395079E+03 E0= -.21395079E+03  EK= 0.78635E+00 SP= 0.11E+02 SK= 0.14E-01
   2964 T=   261. E= -.20251601E+03 F= -.21395107E+03 E0= -.21395107E+03  EK= 0.81006E+00 SP= 0.11E+02 SK= 0.18E-01
   2965 T=   274. E= -.20251605E+03 F= -.21396260E+03 E0= -.21396260E+03  EK= 0.84848E+00 SP= 0.11E+02 SK= 0.22E-01
   2966 T=   290. E= -.20251615E+03 F= -.21398393E+03 E0= -.21398393E+03  EK= 0.89998E+00 SP= 0.11E+02 SK= 0.24E-01
       N       E                     dE             d eps       ncg     rms          rms(c)
DAV:   1    -0.213590985616E+03    0.65598E+00   -0.42608E+02   256   0.833E+01
DAV:   2    -0.214259907630E+03   -0.66892E+00   -0.66892E+00   256   0.963E+00
DAV:   3    -0.214267532666E+03   -0.76250E-02   -0.76250E-02   512   0.898E-01
DAV:   4    -0.214267534615E+03   -0.19488E-05   -0.19484E-05   256   0.167E-02    0.318E+00
DAV:   5    -0.214142712528E+03    0.12482E+00   -0.33240E-01   512   0.238E+00    0.191E+00
DAV:   6    -0.214128626884E+03    0.14086E-01   -0.42761E-01   512   0.273E+00    0.148E+00
DAV:   7    -0.214141095606E+03   -0.12469E-01   -0.77705E-01   512   0.221E+00    0.182E+00
DAV:   8    -0.214109545716E+03    0.31550E-01   -0.32184E-01   512   0.150E+00    0.367E-01
DAV:   9    -0.214108120576E+03    0.14251E-02   -0.22616E-02   512   0.618E-01    0.234E-01
DAV:  10    -0.214107698104E+03    0.42247E-03   -0.67872E-03   512   0.345E-01    0.899E-02
DAV:  11    -0.214107663483E+03    0.34621E-04   -0.15124E-03   512   0.163E-01    0.470E-02
DAV:  12    -0.214107651288E+03    0.12195E-04   -0.31699E-04   512   0.787E-02    0.176E-02
DAV:  13    -0.214107652553E+03   -0.12650E-05   -0.38328E-05   512   0.307E-02
   2967 T=   310. E= -.20261218E+03 F= -.21410765E+03 E0= -.21407852E+03  EK= 0.96059E+00 SP= 0.11E+02 SK= 0.24E-01
   2968 T=   331. E= -.20251881E+03 F= -.21404635E+03 E0= -.21404635E+03  EK= 0.10270E+01 SP= 0.10E+02 SK= 0.21E-01
   2969 T=   353. E= -.20251907E+03 F= -.21408216E+03 E0= -.21408216E+03  EK= 0.10965E+01 SP= 0.10E+02 SK= 0.17E-01
   2970 T=   375. E= -.20251936E+03 F= -.21411775E+03 E0= -.21411775E+03  EK= 0.11628E+01 SP= 0.10E+02 SK= 0.12E-01
   2971 T=   394. E= -.20251963E+03 F= -.21415060E+03 E0= -.21415060E+03  EK= 0.12208E+01 SP= 0.10E+02 SK= 0.59E-02
   2972 T=   408. E= -.20251984E+03 F= -.21417866E+03 E0= -.21417866E+03  EK= 0.12655E+01 SP= 0.10E+02 SK= 0.16E-02
   2973 T=   417. E= -.20251996E+03 F= -.21420049E+03 E0= -.21420049E+03  EK= 0.12931E+01 SP= 0.10E+02 SK= 0.41E-06
   2974 T=   419. E= -.20251995E+03 F= -.21421533E+03 E0= -.21421533E+03  EK= 0.13013E+01 SP= 0.10E+02 SK= 0.19E-02
   2975 T=   416. E= -.20251983E+03 F= -.21422313E+03 E0= -.21422313E+03  EK= 0.12897E+01 SP= 0.10E+02 SK= 0.75E-02
   2976 T=   406. E= -.20251960E+03 F= -.21422450E+03 E0= -.21422450E+03  EK= 0.12599E+01 SP= 0.10E+02 SK= 0.16E-01
       N       E                     dE             d eps       ncg     rms          rms(c)
DAV:   1    -0.213471335425E+03    0.63632E+00   -0.64384E+02   256   0.106E+02
DAV:   2    -0.214568946284E+03   -0.10976E+01   -0.10976E+01   256   0.124E+01
DAV:   3    -0.214579231730E+03   -0.10285E-01   -0.10285E-01   512   0.108E+00
DAV:   4    -0.214579233592E+03   -0.18616E-05   -0.18606E-05   256   0.165E-02    0.516E+00
DAV:   5    -0.214472761001E+03    0.10647E+00   -0.46427E+00   512   0.833E+00    0.474E+00
DAV:   6    -0.214325404464E+03    0.14736E+00   -0.29187E+00   512   0.512E+00    0.326E+00
DAV:   7    -0.214361448164E+03   -0.36044E-01   -0.27273E+00   512   0.425E+00    0.288E+00
DAV:   8    -0.214262502667E+03    0.98945E-01   -0.10015E+00   512   0.376E+00    0.111E+00
DAV:   9    -0.214251066753E+03    0.11436E-01   -0.12768E-01   512   0.143E+00    0.596E-01
DAV:  10    -0.214247923172E+03    0.31436E-02   -0.38684E-02   512   0.887E-01    0.304E-01
DAV:  11    -0.214247519078E+03    0.40409E-03   -0.11745E-02   512   0.419E-01    0.191E-01
DAV:  12    -0.214247329699E+03    0.18938E-03   -0.36291E-03   512   0.258E-01    0.668E-02
DAV:  13    -0.214247295423E+03    0.34276E-04   -0.74591E-04   512   0.112E-01    0.261E-02
DAV:  14    -0.214247293031E+03    0.23920E-05   -0.11455E-04   512   0.502E-02    0.125E-02
DAV:  15    -0.214247294500E+03   -0.14690E-05   -0.12054E-05   512   0.171E-02
   2977 T=   390. E= -.20254988E+03 F= -.21424729E+03 E0= -.21421485E+03  EK= 0.12110E+01 SP= 0.10E+02 SK= 0.26E-01
   2978 T=   371. E= -.20252668E+03 F= -.21421256E+03 E0= -.21421256E+03  EK= 0.11513E+01 SP= 0.10E+02 SK= 0.37E-01
   2979 T=   351. E= -.20252642E+03 F= -.21420264E+03 E0= -.21420264E+03  EK= 0.10892E+01 SP= 0.11E+02 SK= 0.46E-01
   2980 T=   331. E= -.20252622E+03 F= -.21419262E+03 E0= -.21419262E+03  EK= 0.10254E+01 SP= 0.11E+02 SK= 0.52E-01
   2981 T=   311. E= -.20252608E+03 F= -.21418418E+03 E0= -.21418418E+03  EK= 0.96381E+00 SP= 0.11E+02 SK= 0.56E-01
   2982 T=   293. E= -.20252601E+03 F= -.21417874E+03 E0= -.21417874E+03  EK= 0.90747E+00 SP= 0.11E+02 SK= 0.56E-01
   2983 T=   277. E= -.20252599E+03 F= -.21417739E+03 E0= -.21417739E+03  EK= 0.85855E+00 SP= 0.11E+02 SK= 0.53E-01
   2984 T=   264. E= -.20252601E+03 F= -.21418080E+03 E0= -.21418080E+03  EK= 0.81833E+00 SP= 0.11E+02 SK= 0.49E-01
   2985 T=   254. E= -.20252606E+03 F= -.21418925E+03 E0= -.21418925E+03  EK= 0.78732E+00 SP= 0.11E+02 SK= 0.42E-01
   2986 T=   247. E= -.20252614E+03 F= -.21420258E+03 E0= -.21420258E+03  EK= 0.76538E+00 SP= 0.11E+02 SK= 0.35E-01
       N       E                     dE             d eps       ncg     rms          rms(c)
DAV:   1    -0.213555205832E+03    0.69209E+00   -0.46471E+02   256   0.932E+01
DAV:   2    -0.214371938287E+03   -0.81673E+00   -0.81672E+00   256   0.107E+01
DAV:   3    -0.214379147220E+03   -0.72089E-02   -0.72089E-02   512   0.925E-01
DAV:   4    -0.214379148423E+03   -0.12026E-05   -0.12029E-05   256   0.138E-02    0.355E+00
DAV:   5    -0.214340296207E+03    0.38852E-01   -0.21287E+00   512   0.543E+00    0.349E+00
DAV:   6    -0.214288272106E+03    0.52024E-01   -0.25689E+00   512   0.402E+00    0.342E+00
DAV:   7    -0.214298494530E+03   -0.10222E-01   -0.22532E+00   512   0.327E+00    0.344E+00
DAV:   8    -0.214230256740E+03    0.68238E-01   -0.14372E+00   512   0.275E+00    0.142E+00
DAV:   9    -0.214199338464E+03    0.30918E-01   -0.20412E-01   512   0.200E+00    0.533E-01
DAV:  10    -0.214197539391E+03    0.17991E-02   -0.22287E-02   512   0.567E-01    0.289E-01
DAV:  11    -0.214197055743E+03    0.48365E-03   -0.91350E-03   512   0.380E-01    0.153E-01
DAV:  12    -0.214196992571E+03    0.63171E-04   -0.35149E-03   512   0.249E-01    0.929E-02
DAV:  13    -0.214196915640E+03    0.76931E-04   -0.10066E-03   512   0.134E-01    0.370E-02
DAV:  14    -0.214196908728E+03    0.69114E-05   -0.11361E-04   512   0.440E-02    0.177E-02
DAV:  15    -0.214196910610E+03   -0.18817E-05   -0.39547E-05   512   0.245E-02
   2987 T=   242. E= -.20250403E+03 F= -.21419691E+03 E0= -.21416048E+03  EK= 0.75071E+00 SP= 0.11E+02 SK= 0.28E-01
   2988 T=   240. E= -.20252777E+03 F= -.21424033E+03 E0= -.21424033E+03  EK= 0.74327E+00 SP= 0.11E+02 SK= 0.22E-01
   2989 T=   239. E= -.20252786E+03 F= -.21426306E+03 E0= -.21426306E+03  EK= 0.74260E+00 SP= 0.11E+02 SK= 0.16E-01
   2990 T=   241. E= -.20252794E+03 F= -.21428719E+03 E0= -.21428719E+03  EK= 0.74695E+00 SP= 0.11E+02 SK= 0.11E-01
   2991 T=   243. E= -.20252801E+03 F= -.21431135E+03 E0= -.21431135E+03  EK= 0.75481E+00 SP= 0.11E+02 SK= 0.70E-02
   2992 T=   247. E= -.20252806E+03 F= -.21433424E+03 E0= -.21433424E+03  EK= 0.76474E+00 SP= 0.11E+02 SK= 0.41E-02
   2993 T=   250. E= -.20252810E+03 F= -.21435477E+03 E0= -.21435477E+03  EK= 0.77550E+00 SP= 0.11E+02 SK= 0.21E-02
   2994 T=   253. E= -.20252811E+03 F= -.21437211E+03 E0= -.21437211E+03  EK= 0.78617E+00 SP= 0.11E+02 SK= 0.81E-03
   2995 T=   257. E= -.20252810E+03 F= -.21438583E+03 E0= -.21438583E+03  EK= 0.79615E+00 SP= 0.11E+02 SK= 0.16E-03
   2996 T=   260. E= -.20252807E+03 F= -.21439589E+03 E0= -.21439589E+03  EK= 0.80528E+00 SP= 0.11E+02 SK= 0.49E-05
   2997 T=   262. E= -.20252803E+03 F= -.21440263E+03 E0= -.21440263E+03  EK= 0.81377E+00 SP= 0.11E+02 SK= 0.26E-03
   2998 T=   265. E= -.20252797E+03 F= -.21440676E+03 E0= -.21440676E+03  EK= 0.82219E+00 SP= 0.11E+02 SK= 0.83E-03
   2999 T=   268. E= -.20252790E+03 F= -.21440924E+03 E0= -.21440924E+03  EK= 0.83137E+00 SP= 0.11E+02 SK= 0.17E-02
   3000 T=   271. E= -.20252783E+03 F= -.21441115E+03 E0= -.21441115E+03  EK= 0.84222E+00 SP= 0.11E+02 SK= 0.26E-02
