 vasp.6.4.0 14Feb23 (build Mar 16 2023 23:21:51) complex                         
 executed on    LinuxNV_CrayMPICH date 2023.07.27  08:36:25
 running  128 mpi-ranks, on    1 nodes
 distrk:  each k-point on  128 cores,    1 groups
 distr:  one band on NCORE=   1 cores,  128 groups
 OpenACC runtime initialized ...    0 GPUs detected


--------------------------------------------------------------------------------------------------------


 INCAR:
   SYSTEM = AIMD-MLFF-ON-THE-FLY
   ISTART = 0
   ICHARG = 2
   LWAVE = .FALSE.
   LCHARG = .FALSE.
   LVTOT = .FALSE.
   LVHAR = .FALSE.
   LELF = .FALSE.
   LREAL = Auto
   ENCUT = 400
   ISMEAR = 0
   SIGMA = 0.1
   EDIFF = 1E-5
   NELM = 40
   GGA = PE
   LREAL = Auto
   ISYM = 0
   ISIF = 2
   NSW = 3000
   POTIM = 1
   SMASS = 0
   MDALGO = 2
   TEBEG = 300
   ML_LMLFF = .TRUE.
   ML_ISTART = 0

 POTCAR:    PAW_PBE Ti_sv 26Sep2005               
 POTCAR:    PAW_PBE O 08Apr2002                   
 POTCAR:    PAW_PBE Li_sv 10Sep2004               
 -----------------------------------------------------------------------------
|                                                                             |
|           W    W    AA    RRRRR   N    N  II  N    N   GGGG   !!!           |
|           W    W   A  A   R    R  NN   N  II  NN   N  G    G  !!!           |
|           W    W  A    A  R    R  N N  N  II  N N  N  G       !!!           |
|           W WW W  AAAAAA  RRRRR   N  N N  II  N  N N  G  GGG   !            |
|           WW  WW  A    A  R   R   N   NN  II  N   NN  G    G                |
|           W    W  A    A  R    R  N    N  II  N    N   GGGG   !!!           |
|                                                                             |
|     For optimal performance we recommend to set                             |
|       NCORE = 2 up to number-of-cores-per-socket                            |
|     NCORE specifies how many cores store one orbital (NPAR=cpu/NCORE).      |
|     This setting can greatly improve the performance of VASP for DFT.       |
|     The default, NCORE=1 might be grossly inefficient on modern             |
|     multi-core architectures or massively parallel machines. Do your        |
|     own testing! More info at https://www.vasp.at/wiki/index.php/NCORE      |
|     Unfortunately you need to use the default for GW and RPA                |
|     calculations (for HF NCORE is supported but not extensively tested      |
|     yet).                                                                   |
|                                                                             |
 -----------------------------------------------------------------------------

 POTCAR:    PAW_PBE Ti_sv 26Sep2005               
   SHA256 =  4d747badb5a5ea28d858fbac70885b3f8929d6fd9e5b0dbe1ecb9878dc164da1 Ti_sv/POTCAR          
   COPYR  = (c) Copyright 26Sep2005 Georg Kresse                                                    
   COPYR  = This file is part of the software VASP. Any use, copying, and all other rights are regul
   COPYR  = If you do not have a valid VASP license, you may not use, copy or distribute this file. 
   VRHFIN =Ti: 3p4s3d                                                                               
   LEXCH  = PE                                                                                      
   EATOM  =  1588.0892 eV,  116.7213 Ry                                                             
                                                                                                    
   TITEL  = PAW_PBE Ti_sv 26Sep2005                                                                 
   LULTRA =        F    use ultrasoft PP ?                                                          
   IUNSCR =        1    unscreen: 0-lin 1-nonlin 2-no                                               
   RPACOR =    2.000    partial core radius                                                         
   POMASS =   47.880; ZVAL   =   12.000    mass and valenz                                          
   RCORE  =    2.300    outmost cutoff radius                                                       
   RWIGS  =    2.300; RWIGS  =    1.217    wigner-seitz radius (au A)                               
   ENMAX  =  274.610; ENMIN  =  205.957 eV                                                          
   ICORE  =        3    local potential                                                             
   LCOR   =        T    correct aug charges                                                         
   LPAW   =        T    paw PP                                                                      
   EAUG   =  482.848                                                                                
   RMAX   =    2.348    core radius for proj-oper                                                   
   RAUG   =    1.300    factor for augmentation sphere                                              
   RDEP   =    2.381    radius for radial grids                                                     
   RDEPT  =    1.930    core radius for aug-charge                                                  
                                                                                                    
   Atomic configuration                                                                             
    8 entries                                                                                       
     n  l   j            E        occ.                                                              
     1  0  0.50     -4865.3608   2.0000                                                             
     2  0  0.50      -533.1368   2.0000                                                             
     2  1  1.50      -440.5031   6.0000                                                             
     3  0  0.50       -59.3186   2.0000                                                             
     4  0  0.50        -3.7291   1.0000                                                             
     3  1  1.50       -35.7012   6.0000                                                             
     3  2  2.50        -1.9157   3.0000                                                             
     4  3  2.50        -1.3606   0.0000                                                             
   Description                                                                                      
     l       E           TYP  RCUT    TYP  RCUT                                                     
     0    -59.3185931     23  1.800                                                                 
     0     -3.7290822     23  2.300                                                                 
     1    -35.7012045     23  2.300                                                                 
     1     -1.3605826     23  2.300                                                                 
     2     -1.9156920     23  2.300                                                                 
     2     -0.0236318     23  2.300                                                                 
     3     -1.3605826     23  2.300                                                                 
  local pseudopotential read in
  partial core-charges read in
  partial kinetic energy density read in
  atomic valenz-charges read in
  non local Contribution for L=            0  read in
    real space projection operators read in
  non local Contribution for L=            0  read in
    real space projection operators read in
  non local Contribution for L=            1  read in
    real space projection operators read in
  non local Contribution for L=            1  read in
    real space projection operators read in
  non local Contribution for L=            2  read in
    real space projection operators read in
  non local Contribution for L=            2  read in
    real space projection operators read in
    PAW grid and wavefunctions read in
 
   number of l-projection  operators is LMAX  =            6
   number of lm-projection operators is LMMAX =           18
 
 POTCAR:    PAW_PBE O 08Apr2002                   
   SHA256 =  818f92134a0a090dccd8ba1447fa70422a3b330e708bb4f08108d8ae51209ddf O/POTCAR              
   COPYR  = (c) Copyright 08Apr2002 Georg Kresse                                                    
   COPYR  = This file is part of the software VASP. Any use, copying, and all other rights are regul
   COPYR  = If you do not have a valid VASP license, you may not use, copy or distribute this file. 
   VRHFIN =O: s2p4                                                                                  
   LEXCH  = PE                                                                                      
   EATOM  =   432.3788 eV,   31.7789 Ry                                                             
                                                                                                    
   TITEL  = PAW_PBE O 08Apr2002                                                                     
   LULTRA =        F    use ultrasoft PP ?                                                          
   IUNSCR =        1    unscreen: 0-lin 1-nonlin 2-no                                               
   RPACOR =    1.200    partial core radius                                                         
   POMASS =   16.000; ZVAL   =    6.000    mass and valenz                                          
   RCORE  =    1.520    outmost cutoff radius                                                       
   RWIGS  =    1.550; RWIGS  =    0.820    wigner-seitz radius (au A)                               
   ENMAX  =  400.000; ENMIN  =  300.000 eV                                                          
   ICORE  =        2    local potential                                                             
   LCOR   =        T    correct aug charges                                                         
   LPAW   =        T    paw PP                                                                      
   EAUG   =  605.392                                                                                
   DEXC   =    0.000                                                                                
   RMAX   =    1.553    core radius for proj-oper                                                   
   RAUG   =    1.300    factor for augmentation sphere                                              
   RDEP   =    1.550    radius for radial grids                                                     
   RDEPT  =    1.329    core radius for aug-charge                                                  
                                                                                                    
   Atomic configuration                                                                             
    4 entries                                                                                       
     n  l   j            E        occ.                                                              
     1  0  0.50      -514.6923   2.0000                                                             
     2  0  0.50       -23.9615   2.0000                                                             
     2  1  0.50        -9.0305   4.0000                                                             
     3  2  1.50        -9.5241   0.0000                                                             
   Description                                                                                      
     l       E           TYP  RCUT    TYP  RCUT                                                     
     0    -23.9615318     23  1.200                                                                 
     0     -9.5240782     23  1.200                                                                 
     1     -9.0304911     23  1.520                                                                 
     1      8.1634956     23  1.520                                                                 
     2     -9.5240782      7  1.500                                                                 
  local pseudopotential read in
  partial core-charges read in
  partial kinetic energy density read in
  kinetic energy density of atom read in
  atomic valenz-charges read in
  non local Contribution for L=            0  read in
    real space projection operators read in
  non local Contribution for L=            0  read in
    real space projection operators read in
  non local Contribution for L=            1  read in
    real space projection operators read in
  non local Contribution for L=            1  read in
    real space projection operators read in
    PAW grid and wavefunctions read in
 
   number of l-projection  operators is LMAX  =            4
   number of lm-projection operators is LMMAX =            8
 
 POTCAR:    PAW_PBE Li_sv 10Sep2004               
   SHA256 =  7e51fe1804c037e1dccc81a9c376d94d693a7559600c847f4b41960edb8ab895 Li_sv/POTCAR          
   COPYR  = (c) Copyright 10Sep2004 Georg Kresse                                                    
   COPYR  = This file is part of the software VASP. Any use, copying, and all other rights are regul
   COPYR  = If you do not have a valid VASP license, you may not use, copy or distribute this file. 
   VRHFIN =Li: 1s2s2p                                                                               
   LEXCH  = PE                                                                                      
   EATOM  =   202.7858 eV,   14.9043 Ry                                                             
                                                                                                    
   TITEL  = PAW_PBE Li_sv 10Sep2004                                                                 
   LULTRA =        F    use ultrasoft PP ?                                                          
   IUNSCR =        0    unscreen: 0-lin 1-nonlin 2-no                                               
   RPACOR =    0.000    partial core radius                                                         
   POMASS =    7.010; ZVAL   =    3.000    mass and valenz                                          
   RCORE  =    1.700    outmost cutoff radius                                                       
   RWIGS  =    2.050; RWIGS  =    1.085    wigner-seitz radius (au A)                               
   ENMAX  =  499.034; ENMIN  =  374.276 eV                                                          
   ICORE  =        2    local potential                                                             
   LCOR   =        T    correct aug charges                                                         
   LPAW   =        T    paw PP                                                                      
   EAUG   =  628.945                                                                                
   RMAX   =    1.732    core radius for proj-oper                                                   
   RAUG   =    1.300    factor for augmentation sphere                                              
   RDEP   =    1.728    radius for radial grids                                                     
   RDEPT  =    1.329    core radius for aug-charge                                                  
                                                                                                    
   Atomic configuration                                                                             
    4 entries                                                                                       
     n  l   j            E        occ.                                                              
     1  0  0.50       -51.8549   2.0000                                                             
     2  0  0.50        -2.8742   1.0000                                                             
     2  1  0.50        -1.3606   0.0000                                                             
     3  2  1.50        -1.3606   0.0000                                                             
   Description                                                                                      
     l       E           TYP  RCUT    TYP  RCUT                                                     
     0    -51.8548813     23  1.400                                                                 
     0     -2.8742052     23  1.700                                                                 
     1     -1.3605826     23  1.400                                                                 
     2     -1.3605826     23  1.400                                                                 
  local pseudopotential read in
  atomic valenz-charges read in
  non local Contribution for L=            0  read in
    real space projection operators read in
  non local Contribution for L=            0  read in
    real space projection operators read in
  non local Contribution for L=            1  read in
    real space projection operators read in
    PAW grid and wavefunctions read in
 
   number of l-projection  operators is LMAX  =            3
   number of lm-projection operators is LMMAX =            5
 
 Optimization of the real space projectors (new method)

 maximal supplied QI-value         = 16.25
 optimisation between [QCUT,QGAM] = [ 10.24, 20.48] = [ 29.35,117.42] Ry 
 Optimized for a Real-space Cutoff    1.34 Angstroem

   l    n(q)    QCUT    max X(q) W(low)/X(q) W(high)/X(q)  e(spline) 
   0      8    10.239    12.277    0.25E-04    0.71E-04    0.16E-07
   0      8    10.239    11.419    0.53E-04    0.11E-03    0.30E-07
   1      8    10.239     4.010    0.22E-04    0.72E-04    0.29E-07
   1      8    10.239     6.182    0.36E-03    0.20E-04    0.85E-07
   2      7    10.239    47.177    0.44E-03    0.46E-03    0.68E-07
   2      7    10.239    42.437    0.43E-03    0.44E-03    0.66E-07
 Optimization of the real space projectors (new method)

 maximal supplied QI-value         = 24.76
 optimisation between [QCUT,QGAM] = [ 10.15, 20.30] = [ 28.85,115.39] Ry 
 Optimized for a Real-space Cutoff    1.38 Angstroem

   l    n(q)    QCUT    max X(q) W(low)/X(q) W(high)/X(q)  e(spline) 
   0      8    10.150    20.381    0.22E-03    0.32E-03    0.29E-06
   0      8    10.150    15.268    0.23E-03    0.35E-03    0.30E-06
   1      8    10.150     5.964    0.46E-03    0.53E-03    0.21E-06
   1      8    10.150     5.382    0.38E-03    0.45E-03    0.19E-06
 Optimization of the real space projectors (new method)

 maximal supplied QI-value         = 22.11
 optimisation between [QCUT,QGAM] = [ 10.17, 20.34] = [ 28.97,115.86] Ry 
 Optimized for a Real-space Cutoff    1.19 Angstroem

   l    n(q)    QCUT    max X(q) W(low)/X(q) W(high)/X(q)  e(spline) 
   0      7    10.171    10.506    0.63E-04    0.22E-04    0.29E-07
   0      7    10.171     8.367    0.17E-03    0.25E-04    0.68E-07
   1      7    10.171     8.983    0.32E-03    0.17E-03    0.15E-06
  PAW_PBE Ti_sv 26Sep2005               :
 energy of atom  1       EATOM=-1588.0892
 kinetic energy error for atom=    0.0139 (will be added to EATOM!!)
  PAW_PBE O 08Apr2002                   :
 energy of atom  2       EATOM= -432.3788
 kinetic energy error for atom=    0.1156 (will be added to EATOM!!)
  PAW_PBE Li_sv 10Sep2004               :
 energy of atom  3       EATOM= -202.7858
 kinetic energy error for atom=    0.0926 (will be added to EATOM!!)
 
 
 POSCAR: cif2pos.py
  positions in direct lattice
  No initial velocities read in

  MD-specific parameters
                MDALGO =   2
                 CNEXP =     9.000   14.000
 exchange correlation table for  LEXCH =        8
   RHO(1)=    0.500       N(1)  =     2000
   RHO(2)=  100.500       N(2)  =     4000

 VTST: version 4.1, (05/19/21)

 CHAIN: initializing optimizer
 
 OPT: Using VASP Dynamics algorithm
 CHAIN: Read ICHAIN             0
 
 POSCAR: cif2pos.py
  positions in direct lattice
  No initial velocities read in
 


--------------------------------------------------------------------------------------------------------


 ion  position               nearest neighbor table
   1  0.100  0.000  0.710-  13 1.86  10 1.87  17 1.94  17 1.94  24 2.16   9 2.16
   2  0.195  0.000  0.284-  10 1.78   9 1.93  18 1.96  18 1.96  23 2.03  24 2.34
   3  0.600  0.500  0.710-  15 1.86  12 1.87  19 1.94  19 1.94  22 2.16  11 2.16  25 2.26
   4  0.695  0.500  0.284-  12 1.78  11 1.93  20 1.96  20 1.96  21 2.03  22 2.34
   5  0.900  0.000  0.290-   9 1.86  14 1.87  21 1.94  21 1.94  20 2.16  13 2.16
   6  0.805  0.000  0.716-  14 1.78  13 1.93  22 1.96  22 1.96  19 2.03  20 2.34
   7  0.400  0.500  0.290-  11 1.86  16 1.87  23 1.94  23 1.94  18 2.16  15 2.16  25 2.62
   8  0.305  0.500  0.716-  16 1.78  15 1.93  24 1.96  24 1.96  17 2.03  18 2.34  25 2.48
   9  0.058  0.000  0.370-   5 1.86   2 1.93   1 2.16
  10  0.133  0.000  0.005-   2 1.78   1 1.87
  11  0.558  0.500  0.370-   7 1.86   4 1.93   3 2.16
  12  0.633  0.500  0.005-   4 1.78   3 1.87
  13  0.942  0.000  0.630-   1 1.86   6 1.93   5 2.16
  14  0.867  0.000  0.995-   6 1.78   5 1.87
  15  0.442  0.500  0.630-  25 1.44   3 1.86   8 1.93   7 2.16
  16  0.367  0.500  0.995-   8 1.78   7 1.87
  17  0.138  0.500  0.707-   1 1.94   1 1.94   8 2.03
  18  0.237  0.500  0.347-   2 1.96   2 1.96   7 2.16   8 2.34
  19  0.638  0.000  0.707-   3 1.94   3 1.94   6 2.03  25 2.25
  20  0.737  0.000  0.347-   4 1.96   4 1.96   5 2.16   6 2.34
  21  0.862  0.500  0.293-   5 1.94   5 1.94   4 2.03
  22  0.763  0.500  0.653-   6 1.96   6 1.96   3 2.16   4 2.34
  23  0.362  0.000  0.293-   7 1.94   7 1.94   2 2.03  25 2.25
  24  0.263  0.000  0.653-   8 1.96   8 1.96   1 2.16   2 2.34
  25  0.451  0.880  0.636-  15 1.44  23 2.25  19 2.25   3 2.26   8 2.48   7 2.62
 

IMPORTANT INFORMATION: All symmetrisations will be switched off!
NOSYMM: (Re-)initialisation of all symmetry stuff for point group C_1.


----------------------------------------------------------------------------------------

                                     Primitive cell                                     

  volume of cell :     293.4103

  direct lattice vectors                    reciprocal lattice vectors
    12.307200000  0.000000000  0.000000000     0.081253250 -0.000000000  0.024756504
     0.000000000  3.766900000  0.000000000     0.000000000  0.265470281 -0.000000000
    -1.928326250  0.000000000  6.328954130     0.000000000  0.000000000  0.158003989

  length of vectors
    12.307200000  3.766900000  6.616200005     0.084941010  0.265470281  0.158003989

  position of ions in fractional coordinates (direct lattice)
     0.099930000  0.000000000  0.710400000
     0.195290000  0.000000000  0.283760000
     0.599930000  0.500000000  0.710400000
     0.695290000  0.500000000  0.283760000
     0.900070000  0.000000000  0.289600000
     0.804710000  0.000000000  0.716240000
     0.400070000  0.500000000  0.289600000
     0.304710000  0.500000000  0.716240000
     0.058350000  0.000000000  0.369980000
     0.132810000  0.000000000  0.004710000
     0.558350000  0.500000000  0.369980000
     0.632810000  0.500000000  0.004710000
     0.941650000  0.000000000  0.630020000
     0.867190000  0.000000000  0.995290000
     0.441650000  0.500000000  0.630020000
     0.367190000  0.500000000  0.995290000
     0.138070000  0.500000000  0.706600000
     0.236510000  0.500000000  0.347500000
     0.638070000  0.000000000  0.706600000
     0.736510000  0.000000000  0.347500000
     0.861930000  0.500000000  0.293400000
     0.763490000  0.500000000  0.652500000
     0.361930000  0.000000000  0.293400000
     0.263490000  0.000000000  0.652500000
     0.451190000  0.880360000  0.635500000

  ion indices of the primitive-cell ions
   primitive index   ion index
                 1           1
                 2           2
                 3           3
                 4           4
                 5           5
                 6           6
                 7           7
                 8           8
                 9           9
                10          10
                11          11
                12          12
                13          13
                14          14
                15          15
                16          16
                17          17
                18          18
                19          19
                20          20
                21          21
                22          22
                23          23
                24          24
                25          25

----------------------------------------------------------------------------------------

 
 
 KPOINTS: K-Spacing Value to Generate K-Mesh: 0.04

Automatic generation of k-mesh.
 Grid dimensions read from file:
 generate k-points for:    1    1    1

 Generating k-lattice:

  Cartesian coordinates                     Fractional coordinates (reciprocal lattice)
     0.081253250 -0.000000000  0.024756504     1.000000000  0.000000000 -0.000000000
     0.000000000  0.265470281 -0.000000000     0.000000000  1.000000000  0.000000000
     0.000000000  0.000000000  0.158003989     0.000000000  0.000000000  1.000000000

  Length of vectors
     0.084941010  0.265470281  0.158003989

  Shift w.r.t. Gamma in fractional coordinates (k-lattice)
     0.000000000  0.000000000  0.000000000

 
 Subroutine IBZKPT returns following result:
 ===========================================
 
 Found      1 irreducible k-points:
 
 Following reciprocal coordinates:
            Coordinates               Weight
  0.000000  0.000000  0.000000      1.000000
 
 Following cartesian coordinates:
            Coordinates               Weight
  0.000000  0.000000  0.000000      1.000000
 


--------------------------------------------------------------------------------------------------------




 Dimension of arrays:
   k-points           NKPTS =      1   k-points in BZ     NKDIM =      1   number of bands    NBANDS=    128
   number of dos      NEDOS =    301   number of ions     NIONS =     25
   non local maximal  LDIM  =      6   non local SUM 2l+1 LMDIM =     18
   total plane-waves  NPLWV =  34560
   max r-space proj   IRMAX =   1348   max aug-charges    IRDMAX=   4772
   dimension x,y,z NGX =    60 NGY =   18 NGZ =   32
   dimension x,y,z NGXF=   120 NGYF=   36 NGZF=   64
   support grid    NGXF=   120 NGYF=   36 NGZF=   64
   ions per type =               8  16   1
   NGX,Y,Z   is equivalent  to a cutoff of   8.10,  7.94,  8.04 a.u.
   NGXF,Y,Z  is equivalent  to a cutoff of  16.21, 15.89, 16.08 a.u.

 SYSTEM =  AIMD-MLFF-ON-THE-FLY                    
 POSCAR =  cif2pos.py                              

 Startparameter for this run:
   NWRITE =      2    write-flag & timer
   PREC   = normal    normal or accurate (medium, high low for compatibility)
   ISTART =      0    job   : 0-new  1-cont  2-samecut
   ICHARG =      2    charge: 1-file 2-atom 10-const
   ISPIN  =      1    spin polarized calculation?
   LNONCOLLINEAR =      F non collinear calculations
   LSORBIT =      F    spin-orbit coupling
   INIWAV =      1    electr: 0-lowe 1-rand  2-diag
   LASPH  =      F    aspherical Exc in radial PAW
 Electronic Relaxation 1
   ENCUT  =  400.0 eV  29.40 Ry    5.42 a.u.  20.07  6.14 10.79*2*pi/ulx,y,z
   ENINI  =  400.0     initial cutoff
   ENAUG  =  628.9 eV  augmentation charge cutoff
   NELM   =     40;   NELMIN=  2; NELMDL= -5     # of ELM steps 
   EDIFF  = 0.1E-04   stopping-criterion for ELM
   LREAL  =      T    real-space projection
   NLSPLINE    = F    spline interpolate recip. space projectors
   LCOMPAT=      F    compatible to vasp.4.4
   GGA_COMPAT  = T    GGA compatible to vasp.4.4-vasp.4.6
   LMAXPAW     = -100 max onsite density
   LMAXMIX     =    2 max onsite mixed and CHGCAR
   VOSKOWN=      0    Vosko Wilk Nusair interpolation
   ROPT   =   -0.00050  -0.00050  -0.00050
 Ionic relaxation
   EDIFFG = 0.1E-03   stopping-criterion for IOM
   NSW    =   3000    number of steps for IOM
   NBLOCK =      1;   KBLOCK =   3000    inner block; outer block 
   IBRION =      0    ionic relax: 0-MD 1-quasi-New 2-CG
   NFREE  =      0    steps in history (QN), initial steepest desc. (CG)
   ISIF   =      2    stress and relaxation
   IWAVPR =     11    prediction:  0-non 1-charg 2-wave 3-comb
   ISYM   =      0    0-nonsym 1-usesym 2-fastsym
   LCORR  =      T    Harris-Foulkes like correction to forces

   POTIM  = 1.0000    time-step for ionic-motion
   TEIN   =  300.0    initial temperature
   TEBEG  =  300.0;   TEEND  = 300.0 temperature during run
   SMASS  =   0.01    Nose mass-parameter (am)
   estimated Nose-frequenzy (Omega)   =  0.16E+15 period in steps = 0.40E+02 mass=   0.111E-28a.u.
   SCALEE = 1.0000    scale energy and forces
   NPACO  =    256;   APACO  = 10.0  distance and # of slots for P.C.
   PSTRESS=    0.0 pullay stress

  Mass of Ions in am
   POMASS =  47.88 16.00  7.01
  Ionic Valenz
   ZVAL   =  12.00  6.00  3.00
  Atomic Wigner-Seitz radii
   RWIGS  =  -1.00 -1.00 -1.00
  virtual crystal weights 
   VCA    =   1.00  1.00  1.00
   NELECT =     195.0000    total number of electrons
   NUPDOWN=      -1.0000    fix difference up-down

 DOS related values:
   EMIN   =  10.00;   EMAX   =-10.00  energy-range for DOS
   EFERMI =   0.00;   METHOD = LEGACY      
   ISMEAR =     0;   SIGMA  =   0.10  broadening in eV -4-tet -1-fermi 0-gaus

 Electronic relaxation 2 (details)
   IALGO  =     38    algorithm
   LDIAG  =      T    sub-space diagonalisation (order eigenvalues)
   LSUBROT=      F    optimize rotation matrix (better conditioning)
   TURBO    =      0    0=normal 1=particle mesh
   IRESTART =      0    0=no restart 2=restart with 2 vectors
   NREBOOT  =      0    no. of reboots
   NMIN     =      0    reboot dimension
   EREF     =   0.00    reference energy to select bands
   IMIX   =      4    mixing-type and parameters
     AMIX     =   0.40;   BMIX     =  1.00
     AMIX_MAG =   1.60;   BMIX_MAG =  1.00
     AMIN     =   0.10
     WC   =   100.;   INIMIX=   1;  MIXPRE=   1;  MAXMIX= -45

 Intra band minimization:
   WEIMIN = 0.0010     energy-eigenvalue tresh-hold
   EBREAK =  0.20E-07  absolut break condition
   DEPER  =   0.30     relativ break condition  

   TIME   =   0.40     timestep for ELM

  volume/ion in A,a.u.               =      11.74        79.20
  Fermi-wavevector in a.u.,A,eV,Ry     =   1.428657  2.699770 27.770314  2.041060
  Thomas-Fermi vector in A             =   2.548695
 
 Write flags
   LWAVE        =      F    write WAVECAR
   LDOWNSAMPLE  =      F    k-point downsampling of WAVECAR
   LCHARG       =      F    write CHGCAR
   LVTOT        =      F    write LOCPOT, total local potential
   LVHAR        =      F    write LOCPOT, Hartree potential only
   LELF         =      F    write electronic localiz. function (ELF)
   LORBIT       =      0    0 simple, 1 ext, 2 COOP (PROOUT), +10 PAW based schemes


 Dipole corrections
   LMONO  =      F    monopole corrections only (constant potential shift)
   LDIPOL =      F    correct potential (dipole corrections)
   IDIPOL =      0    1-x, 2-y, 3-z, 4-all directions 
   EPSILON=  1.0000000 bulk dielectric constant

 Exchange correlation treatment:
   GGA     =    PE    GGA type
   LEXCH   =     8    internal setting for exchange type
   LIBXC   =     F    Libxc                    
   VOSKOWN =     0    Vosko Wilk Nusair interpolation
   LHFCALC =     F    Hartree Fock is set to
   LHFONE  =     F    Hartree Fock one center treatment
   AEXX    =    0.0000 exact exchange contribution

 Linear response parameters
   LEPSILON=     F    determine dielectric tensor
   LRPA    =     F    only Hartree local field effects (RPA)
   LNABLA  =     F    use nabla operator in PAW spheres
   LVEL    =     F    velocity operator in full k-point grid
   CSHIFT  =0.1000    complex shift for real part using Kramers Kronig
   OMEGAMAX=  -1.0    maximum frequency
   DEG_THRESHOLD= 0.2000000E-02 threshold for treating states as degnerate
   RTIME   =   -0.100 relaxation time in fs
  (WPLASMAI=    0.000 imaginary part of plasma frequency in eV, 0.658/RTIME)
   DFIELD  = 0.0000000 0.0000000 0.0000000 field for delta impulse in time
 
  Optional k-point grid parameters
   LKPOINTS_OPT  =     F    use optional k-point grid
   KPOINTS_OPT_MODE=     1    mode for optional k-point grid
 
 Orbital magnetization related:
   ORBITALMAG=     F  switch on orbital magnetization
   LCHIMAG   =     F  perturbation theory with respect to B field
   DQ        =  0.001000  dq finite difference perturbation B field
   LLRAUG    =     F  two centre corrections for induced B field
   LBONE     =     F  B-component reconstruction in AE one-centre
   LVGVCALC  =     T  calculate vGv susceptibility
   LVGVAPPL  =     F  apply vGv susceptibility instead of pGv for G=0

 Random number generation:
   RANDOM_GENERATOR = DEFAULT
   PCG_SEED         = not used


--------------------------------------------------------------------------------------------------------


 molecular dynamics for ions
   using nose mass (canonical ensemble)
 charge density and potential will be updated during run
 non-spin polarized calculation
 Variant of blocked Davidson
 Davidson routine will perform the subspace rotation
 perform sub-space diagonalisation
    after iterative eigenvector-optimisation
 modified Broyden-mixing scheme, WC =      100.0
 initial mixing is a Kerker type mixing with AMIX =  0.4000 and BMIX =      1.0000
 Hartree-type preconditioning will be used
 using additional bands            30
 real space projection scheme for non local part
 use partial core corrections
 calculate Harris-corrections to forces 
   (improved forces if not selfconsistent)
 use gradient corrections 
 use of overlap-Matrix (Vanderbilt PP)
 Gauss-broadening in eV      SIGMA  =   0.10


--------------------------------------------------------------------------------------------------------


  energy-cutoff  :      400.00
  volume of cell :      293.41
      direct lattice vectors                 reciprocal lattice vectors
    12.307200000  0.000000000  0.000000000     0.081253250 -0.000000000  0.024756504
     0.000000000  3.766900000  0.000000000     0.000000000  0.265470281 -0.000000000
    -1.928326250  0.000000000  6.328954130     0.000000000  0.000000000  0.158003989

  length of vectors
    12.307200000  3.766900000  6.616200005     0.084941010  0.265470281  0.158003989


 
 k-points in units of 2pi/SCALE and weight: K-Spacing Value to Generate K-Mesh: 0.04
   0.00000000  0.00000000  0.00000000       1.000
 
 k-points in reciprocal lattice and weights: K-Spacing Value to Generate K-Mesh: 0.04
   0.00000000  0.00000000  0.00000000       1.000
 
 position of ions in fractional coordinates (direct lattice) 
   0.09993000  0.00000000  0.71040000
   0.19529000  0.00000000  0.28376000
   0.59993000  0.50000000  0.71040000
   0.69529000  0.50000000  0.28376000
   0.90007000  0.00000000  0.28960000
   0.80471000  0.00000000  0.71624000
   0.40007000  0.50000000  0.28960000
   0.30471000  0.50000000  0.71624000
   0.05835000  0.00000000  0.36998000
   0.13281000  0.00000000  0.00471000
   0.55835000  0.50000000  0.36998000
   0.63281000  0.50000000  0.00471000
   0.94165000  0.00000000  0.63002000
   0.86719000  0.00000000  0.99529000
   0.44165000  0.50000000  0.63002000
   0.36719000  0.50000000  0.99529000
   0.13807000  0.50000000  0.70660000
   0.23651000  0.50000000  0.34750000
   0.63807000  0.00000000  0.70660000
   0.73651000  0.00000000  0.34750000
   0.86193000  0.50000000  0.29340000
   0.76349000  0.50000000  0.65250000
   0.36193000  0.00000000  0.29340000
   0.26349000  0.00000000  0.65250000
   0.45119000  0.88036000  0.63550000
 
 position of ions in cartesian coordinates  (Angst):
  -0.14002447  0.00000000  4.49608901
   1.85629123  0.00000000  1.79590402
   6.01357553  1.88345000  4.49608901
   8.00989123  1.88345000  1.79590402
  10.51889822  0.00000000  1.83286512
   8.52258252  0.00000000  4.53305011
   4.36529822  1.88345000  1.83286512
   2.36898252  1.88345000  4.53305011
   0.00468297  0.00000000  2.34158645
   1.62543682  0.00000000  0.02980937
   6.15828297  1.88345000  2.34158645
   7.77903682  1.88345000  0.02980937
  10.37419078  0.00000000  3.98736768
   8.75343693  0.00000000  6.29914476
   4.22059078  1.88345000  3.98736768
   2.59983693  1.88345000  6.29914476
   0.33669978  1.88345000  4.47203899
   2.24068250  1.88345000  2.19931156
   6.49029978  0.00000000  4.47203899
   8.39428250  0.00000000  2.19931156
  10.04217397  1.88345000  1.85691514
   8.13819125  1.88345000  4.12964257
   3.88857397  0.00000000  1.85691514
   1.98459125  0.00000000  4.12964257
   4.32743424  3.31622808  4.02205035
 


--------------------------------------------------------------------------------------------------------


 k-point   1 :   0.0000 0.0000 0.0000  plane waves:    5337

 maximum and minimum number of plane-waves per node :      5337     5337

 maximum number of plane-waves:      5337
 maximum index in each direction: 
   IXMAX=   20   IYMAX=    6   IZMAX=   10
   IXMIN=  -20   IYMIN=   -6   IZMIN=  -10


 serial   3D FFT for wavefunctions
 parallel 3D FFT for charge:
    minimum data exchange during FFTs selected (reduces bandwidth)


 total amount of memory used by VASP MPI-rank0    35765. kBytes
=======================================================================

   base      :      30000. kBytes
   nonlr-proj:       3475. kBytes
   fftplans  :        259. kBytes
   grid      :       1551. kBytes
   one-center:        388. kBytes
   wavefun   :         92. kBytes
 
     INWAV:  cpu time      0.0031: real time      0.0032
 Broyden mixing: mesh for mixing (old mesh)
   NGX = 41   NGY = 13   NGZ = 21
  (NGX  =120   NGY  = 36   NGZ  = 64)
  gives a total of  11193 points

 initial charge density was supplied:
 charge density of overlapping atoms calculated
 number of electron     195.0000000 magnetization 
 keeping initial charge density in first step


--------------------------------------------------------------------------------------------------------


 Maximum index for non-local projection operator          1265
 Maximum index for augmentation-charges            16 (set IRDMAX)


--------------------------------------------------------------------------------------------------------


 First call to EWALD:  gamma=   0.267
 Maximum number of real-space cells 2x 4x 3
 Maximum number of reciprocal cells 5x 2x 3

    FEWALD:  cpu time      0.0009: real time      0.0009


--------------------------------------- Ionic step        1  -------------------------------------------



  ML FORCE on cell =-STRESS in cart. coord. units (eV/cell)
  Direction    XX          YY          ZZ          XY          YZ          ZX
  --------------------------------------------------------------------------------------
  Total:      0.00000     0.00000     0.00000     0.00000     0.00000     0.00000
  in kB       0.00000     0.00000     0.00000     0.00000     0.00000     0.00000
  external pressure =        0.00 kB  Pullay stress =        0.00 kB

  kinetic pressure (ideal gas correction) =      3.39 kB
  total pressure  =      3.39 kB
  Total+kin.     4.792       2.248       3.124      -0.376      -0.731      -0.637
  volume of cell :      293.41
      direct lattice vectors                 reciprocal lattice vectors
    12.307200000  0.000000000  0.000000000     0.081253250 -0.000000000  0.024756504
     0.000000000  3.766900000  0.000000000     0.000000000  0.265470281 -0.000000000
    -1.928326250  0.000000000  6.328954130     0.000000000  0.000000000  0.158003989

  length of vectors
    12.307200000  3.766900000  6.616200005     0.084941010  0.265470281  0.158003989


  POSITION                                       TOTAL-FORCE (eV/Angst) (ML)
 -----------------------------------------------------------------------------------
     -0.14002      0.00000      4.49609         0.000000      0.000000      0.000000
      1.85629      0.00000      1.79590         0.000000      0.000000      0.000000
      6.01358      1.88345      4.49609         0.000000      0.000000      0.000000
      8.00989      1.88345      1.79590         0.000000      0.000000      0.000000
     10.51890      0.00000      1.83287         0.000000      0.000000      0.000000
      8.52258      0.00000      4.53305         0.000000      0.000000      0.000000
      4.36530      1.88345      1.83287         0.000000      0.000000      0.000000
      2.36898      1.88345      4.53305         0.000000      0.000000      0.000000
      0.00468      0.00000      2.34159         0.000000      0.000000      0.000000
      1.62544      0.00000      0.02981         0.000000      0.000000      0.000000
      6.15828      1.88345      2.34159         0.000000      0.000000      0.000000
      7.77904      1.88345      0.02981         0.000000      0.000000      0.000000
     10.37419      0.00000      3.98737         0.000000      0.000000      0.000000
      8.75344      0.00000      6.29914         0.000000      0.000000      0.000000
      4.22059      1.88345      3.98737         0.000000      0.000000      0.000000
      2.59984      1.88345      6.29914         0.000000      0.000000      0.000000
      0.33670      1.88345      4.47204         0.000000      0.000000      0.000000
      2.24068      1.88345      2.19931         0.000000      0.000000      0.000000
      6.49030      0.00000      4.47204         0.000000      0.000000      0.000000
      8.39428      0.00000      2.19931         0.000000      0.000000      0.000000
     10.04217      1.88345      1.85692         0.000000      0.000000      0.000000
      8.13819      1.88345      4.12964         0.000000      0.000000      0.000000
      3.88857      0.00000      1.85692         0.000000      0.000000      0.000000
      1.98459      0.00000      4.12964         0.000000      0.000000      0.000000
      4.32743      3.31623      4.02205         0.000000      0.000000      0.000000
 -----------------------------------------------------------------------------------
    total drift:                                0.000000      0.000000      0.000000


--------------------------------------------------------------------------------------------------------



  ML FREE ENERGIE OF THE ION-ELECTRON SYSTEM (eV)
  ---------------------------------------------------
  free  energy ML TOTEN  =         0.00000000 eV

  ML energy  without entropy=        0.00000000  ML energy(sigma->0) =        0.00000000

      MLFF:  cpu time      0.0183: real time      0.0184


--------------------------------------- Iteration      1(   1)  ---------------------------------------


    POTLOK:  cpu time      0.0110: real time      0.0111
    SETDIJ:  cpu time      0.0030: real time      0.0031
     EDDAV:  cpu time      0.4557: real time      0.3164
       DOS:  cpu time      0.0015: real time      0.0015
    --------------------------------------------
      LOOP:  cpu time      0.4712: real time      0.3320

 eigenvalue-minimisations  :   256
 total energy-change (2. order) : 0.9908300E+03  (-0.1081449E+05)
 number of electron     195.0000000 magnetization 
 augmentation part      195.0000000 magnetization 

 Free energy of the ion-electron system (eV)
  ---------------------------------------------------
  alpha Z        PSCENC =       691.86374690
  Ewald energy   TEWEN  =    -12545.44361039
  -Hartree energ DENC   =     -6570.04975256
  -exchange      EXHF   =         0.00000000
  -V(xc)+E(xc)   XCENC  =       951.80804338
  PAW double counting   =     15741.07478202   -15628.57984533
  entropy T*S    EENTRO =        -0.05644369
  eigenvalues    EBANDS =     -1473.29371975
  atomic energy  EATOM  =     19823.50682924
  Solvation  Ediel_sol  =         0.00000000
  ---------------------------------------------------
  free energy    TOTEN  =       990.83002982 eV

  energy without entropy =      990.88647351  energy(sigma->0) =      990.85825167


--------------------------------------------------------------------------------------------------------




--------------------------------------- Iteration      1(   2)  ---------------------------------------


     EDDAV:  cpu time      0.8619: real time      0.6016
       DOS:  cpu time      0.0005: real time      0.0005
    --------------------------------------------
      LOOP:  cpu time      0.8624: real time      0.6021

 eigenvalue-minimisations  :   384
 total energy-change (2. order) :-0.1244380E+04  (-0.1244380E+04)
 number of electron     195.0000000 magnetization 
 augmentation part      195.0000000 magnetization 

 Free energy of the ion-electron system (eV)
  ---------------------------------------------------
  alpha Z        PSCENC =       691.86374690
  Ewald energy   TEWEN  =    -12545.44361039
  -Hartree energ DENC   =     -6570.04975256
  -exchange      EXHF   =         0.00000000
  -V(xc)+E(xc)   XCENC  =       951.80804338
  PAW double counting   =     15741.07478202   -15628.57984533
  entropy T*S    EENTRO =        -0.05641897
  eigenvalues    EBANDS =     -2717.67364009
  atomic energy  EATOM  =     19823.50682924
  Solvation  Ediel_sol  =         0.00000000
  ---------------------------------------------------
  free energy    TOTEN  =      -253.54986581 eV

  energy without entropy =     -253.49344684  energy(sigma->0) =     -253.52165632


--------------------------------------------------------------------------------------------------------




--------------------------------------- Iteration      1(   3)  ---------------------------------------


     EDDAV:  cpu time      0.4450: real time      0.3236
       DOS:  cpu time      0.0006: real time      0.0006
    --------------------------------------------
      LOOP:  cpu time      0.4457: real time      0.3243

 eigenvalue-minimisations  :   256
 total energy-change (2. order) :-0.2235395E+02  (-0.2235395E+02)
 number of electron     195.0000000 magnetization 
 augmentation part      195.0000000 magnetization 

 Free energy of the ion-electron system (eV)
  ---------------------------------------------------
  alpha Z        PSCENC =       691.86374690
  Ewald energy   TEWEN  =    -12545.44361039
  -Hartree energ DENC   =     -6570.04975256
  -exchange      EXHF   =         0.00000000
  -V(xc)+E(xc)   XCENC  =       951.80804338
  PAW double counting   =     15741.07478202   -15628.57984533
  entropy T*S    EENTRO =        -0.05641981
  eigenvalues    EBANDS =     -2740.02758961
  atomic energy  EATOM  =     19823.50682924
  Solvation  Ediel_sol  =         0.00000000
  ---------------------------------------------------
  free energy    TOTEN  =      -275.90381617 eV

  energy without entropy =     -275.84739635  energy(sigma->0) =     -275.87560626


--------------------------------------------------------------------------------------------------------




--------------------------------------- Iteration      1(   4)  ---------------------------------------


     EDDAV:  cpu time      1.7273: real time      1.2149
       DOS:  cpu time      0.0004: real time      0.0004
    --------------------------------------------
      LOOP:  cpu time      1.7278: real time      1.2154

 eigenvalue-minimisations  :   512
 total energy-change (2. order) :-0.5231369E+00  (-0.5231365E+00)
 number of electron     195.0000000 magnetization 
 augmentation part      195.0000000 magnetization 

 Free energy of the ion-electron system (eV)
  ---------------------------------------------------
  alpha Z        PSCENC =       691.86374690
  Ewald energy   TEWEN  =    -12545.44361039
  -Hartree energ DENC   =     -6570.04975256
  -exchange      EXHF   =         0.00000000
  -V(xc)+E(xc)   XCENC  =       951.80804338
  PAW double counting   =     15741.07478202   -15628.57984533
  entropy T*S    EENTRO =        -0.05642923
  eigenvalues    EBANDS =     -2740.55071711
  atomic energy  EATOM  =     19823.50682924
  Solvation  Ediel_sol  =         0.00000000
  ---------------------------------------------------
  free energy    TOTEN  =      -276.42695308 eV

  energy without entropy =     -276.37052385  energy(sigma->0) =     -276.39873847


--------------------------------------------------------------------------------------------------------




--------------------------------------- Iteration      1(   5)  ---------------------------------------


     EDDAV:  cpu time      0.4631: real time      0.3387
       DOS:  cpu time      0.0005: real time      0.0005
    CHARGE:  cpu time      0.0057: real time      0.0058
    MIXING:  cpu time      0.0010: real time      0.0010
    --------------------------------------------
      LOOP:  cpu time      0.4703: real time      0.3459

 eigenvalue-minimisations  :   256
 total energy-change (2. order) :-0.1883241E-03  (-0.1883251E-03)
 number of electron     194.9999484 magnetization 
 augmentation part       41.4370953 magnetization 

 Broyden mixing:
  rms(total) = 0.63084E+01    rms(broyden)= 0.63074E+01
  rms(prec ) = 0.73764E+01
  weight for this iteration     100.00

 Free energy of the ion-electron system (eV)
  ---------------------------------------------------
  alpha Z        PSCENC =       691.86374690
  Ewald energy   TEWEN  =    -12545.44361039
  -Hartree energ DENC   =     -6570.04975256
  -exchange      EXHF   =         0.00000000
  -V(xc)+E(xc)   XCENC  =       951.80804338
  PAW double counting   =     15741.07478202   -15628.57984533
  entropy T*S    EENTRO =        -0.05642927
  eigenvalues    EBANDS =     -2740.55090539
  atomic energy  EATOM  =     19823.50682924
  Solvation  Ediel_sol  =         0.00000000
  ---------------------------------------------------
  free energy    TOTEN  =      -276.42714141 eV

  energy without entropy =     -276.37071214  energy(sigma->0) =     -276.39892677


--------------------------------------------------------------------------------------------------------




--------------------------------------- Iteration      1(   6)  ---------------------------------------


    POTLOK:  cpu time      0.0293: real time      0.0295
    SETDIJ:  cpu time      0.0022: real time      0.0022
     EDDAV:  cpu time      1.7141: real time      1.1907
       DOS:  cpu time      0.0004: real time      0.0004
    CHARGE:  cpu time      0.0053: real time      0.0053
    MIXING:  cpu time      0.0008: real time      0.0008
    --------------------------------------------
      LOOP:  cpu time      1.7522: real time      1.2290

 eigenvalue-minimisations  :   512
 total energy-change (2. order) : 0.6246659E+02  (-0.6283840E+02)
 number of electron     194.9999653 magnetization 
 augmentation part       41.0342008 magnetization 

 Broyden mixing:
  rms(total) = 0.28689E+01    rms(broyden)= 0.28662E+01
  rms(prec ) = 0.33550E+01
  weight for this iteration     100.00

 eigenvalues of (default mixing * dielectric matrix)
  average eigenvalue GAMMA=   0.7716
  0.7716

 Free energy of the ion-electron system (eV)
  ---------------------------------------------------
  alpha Z        PSCENC =       691.86374690
  Ewald energy   TEWEN  =    -12545.44361039
  -Hartree energ DENC   =     -6541.59383578
  -exchange      EXHF   =         0.00000000
  -V(xc)+E(xc)   XCENC  =       960.61672573
  PAW double counting   =     18175.39665067   -18095.09862666
  entropy T*S    EENTRO =        -0.05671999
  eigenvalues    EBANDS =     -2683.15170952
  atomic energy  EATOM  =     19823.50682924
  Solvation  Ediel_sol  =         0.00000000
  ---------------------------------------------------
  free energy    TOTEN  =      -213.96054978 eV

  energy without entropy =     -213.90382980  energy(sigma->0) =     -213.93218979


--------------------------------------------------------------------------------------------------------




--------------------------------------- Iteration      1(   7)  ---------------------------------------


    POTLOK:  cpu time      0.0154: real time      0.0297
    SETDIJ:  cpu time      0.0022: real time      0.0022
     EDDAV:  cpu time      1.5830: real time      1.0639
       DOS:  cpu time      0.0005: real time      0.0005
    CHARGE:  cpu time      0.0051: real time      0.0051
    MIXING:  cpu time      0.0006: real time      0.0006
    --------------------------------------------
      LOOP:  cpu time      1.6066: real time      1.1020

 eigenvalue-minimisations  :   512
 total energy-change (2. order) : 0.4335173E+01  (-0.1404654E+02)
 number of electron     194.9999593 magnetization 
 augmentation part       40.0859374 magnetization 

 Broyden mixing:
  rms(total) = 0.18783E+01    rms(broyden)= 0.18778E+01
  rms(prec ) = 0.21082E+01
  weight for this iteration     100.00

 eigenvalues of (default mixing * dielectric matrix)
  average eigenvalue GAMMA=   1.1073
  1.6193  0.5953

 Free energy of the ion-electron system (eV)
  ---------------------------------------------------
  alpha Z        PSCENC =       691.86374690
  Ewald energy   TEWEN  =    -12545.44361039
  -Hartree energ DENC   =     -6558.57218918
  -exchange      EXHF   =         0.00000000
  -V(xc)+E(xc)   XCENC  =       957.78099686
  PAW double counting   =     19352.24557859   -19258.13631000
  entropy T*S    EENTRO =        -0.05641900
  eigenvalues    EBANDS =     -2672.81399977
  atomic energy  EATOM  =     19823.50682924
  Solvation  Ediel_sol  =         0.00000000
  ---------------------------------------------------
  free energy    TOTEN  =      -209.62537675 eV

  energy without entropy =     -209.56895775  energy(sigma->0) =     -209.59716725


--------------------------------------------------------------------------------------------------------




--------------------------------------- Iteration      1(   8)  ---------------------------------------


    POTLOK:  cpu time      0.0161: real time      0.0294
    SETDIJ:  cpu time      0.0022: real time      0.0022
     EDDAV:  cpu time      1.7007: real time      1.1757
       DOS:  cpu time      0.0005: real time      0.0005
    CHARGE:  cpu time      0.0052: real time      0.0052
    MIXING:  cpu time      0.0003: real time      0.0003
    --------------------------------------------
      LOOP:  cpu time      1.7249: real time      1.2133

 eigenvalue-minimisations  :   512
 total energy-change (2. order) : 0.1738781E+01  (-0.3683865E+01)
 number of electron     194.9999611 magnetization 
 augmentation part       40.4459387 magnetization 

 Broyden mixing:
  rms(total) = 0.87686E+00    rms(broyden)= 0.87643E+00
  rms(prec ) = 0.10717E+01
  weight for this iteration     100.00

 eigenvalues of (default mixing * dielectric matrix)
  average eigenvalue GAMMA=   1.1830
  2.3216  0.7738  0.4535

 Free energy of the ion-electron system (eV)
  ---------------------------------------------------
  alpha Z        PSCENC =       691.86374690
  Ewald energy   TEWEN  =    -12545.44361039
  -Hartree energ DENC   =     -6528.92872394
  -exchange      EXHF   =         0.00000000
  -V(xc)+E(xc)   XCENC  =       957.21359346
  PAW double counting   =     20839.73510325   -20742.55817697
  entropy T*S    EENTRO =        -0.05712712
  eigenvalues    EBANDS =     -2703.21823058
  atomic energy  EATOM  =     19823.50682924
  Solvation  Ediel_sol  =         0.00000000
  ---------------------------------------------------
  free energy    TOTEN  =      -207.88659615 eV

  energy without entropy =     -207.82946903  energy(sigma->0) =     -207.85803259


--------------------------------------------------------------------------------------------------------




--------------------------------------- Iteration      1(   9)  ---------------------------------------


    POTLOK:  cpu time      0.0164: real time      0.0293
    SETDIJ:  cpu time      0.0022: real time      0.0022
     EDDAV:  cpu time      1.5689: real time      1.0493
       DOS:  cpu time      0.0005: real time      0.0005
    CHARGE:  cpu time      0.0049: real time      0.0049
    MIXING:  cpu time      0.0003: real time      0.0003
    --------------------------------------------
      LOOP:  cpu time      1.5931: real time      1.0865

 eigenvalue-minimisations  :   512
 total energy-change (2. order) : 0.1871150E+00  (-0.1054678E+01)
 number of electron     194.9999618 magnetization 
 augmentation part       40.5522454 magnetization 

 Broyden mixing:
  rms(total) = 0.71763E+00    rms(broyden)= 0.71726E+00
  rms(prec ) = 0.94911E+00
  weight for this iteration     100.00

 eigenvalues of (default mixing * dielectric matrix)
  average eigenvalue GAMMA=   1.0138
  2.2894  0.8810  0.4423  0.4423

 Free energy of the ion-electron system (eV)
  ---------------------------------------------------
  alpha Z        PSCENC =       691.86374690
  Ewald energy   TEWEN  =    -12545.44361039
  -Hartree energ DENC   =     -6524.69397943
  -exchange      EXHF   =         0.00000000
  -V(xc)+E(xc)   XCENC  =       957.16982922
  PAW double counting   =     22143.13383969   -22039.70791485
  entropy T*S    EENTRO =        -0.06236563
  eigenvalues    EBANDS =     -2713.46585592
  atomic energy  EATOM  =     19823.50682924
  Solvation  Ediel_sol  =         0.00000000
  ---------------------------------------------------
  free energy    TOTEN  =      -207.69948117 eV

  energy without entropy =     -207.63711554  energy(sigma->0) =     -207.66829836


--------------------------------------------------------------------------------------------------------




--------------------------------------- Iteration      1(  10)  ---------------------------------------


    POTLOK:  cpu time      0.0157: real time      0.0297
    SETDIJ:  cpu time      0.0022: real time      0.0022
     EDDAV:  cpu time      1.6964: real time      1.1748
       DOS:  cpu time      0.0005: real time      0.0005
    CHARGE:  cpu time      0.0050: real time      0.0050
    MIXING:  cpu time      0.0003: real time      0.0003
    --------------------------------------------
      LOOP:  cpu time      1.7201: real time      1.2124

 eigenvalue-minimisations  :   512
 total energy-change (2. order) : 0.4587086E+00  (-0.7348424E+00)
 number of electron     194.9999612 magnetization 
 augmentation part       40.3769951 magnetization 

 Broyden mixing:
  rms(total) = 0.36888E+00    rms(broyden)= 0.36834E+00
  rms(prec ) = 0.51806E+00
  weight for this iteration     100.00

 eigenvalues of (default mixing * dielectric matrix)
  average eigenvalue GAMMA=   0.9178
  2.2766  0.9305  0.5429  0.5429  0.2961

 Free energy of the ion-electron system (eV)
  ---------------------------------------------------
  alpha Z        PSCENC =       691.86374690
  Ewald energy   TEWEN  =    -12545.44361039
  -Hartree energ DENC   =     -6535.79909501
  -exchange      EXHF   =         0.00000000
  -V(xc)+E(xc)   XCENC  =       957.42236836
  PAW double counting   =     22217.81095591   -22111.87741370
  entropy T*S    EENTRO =        -0.05642137
  eigenvalues    EBANDS =     -2704.66813255
  atomic energy  EATOM  =     19823.50682924
  Solvation  Ediel_sol  =         0.00000000
  ---------------------------------------------------
  free energy    TOTEN  =      -207.24077260 eV

  energy without entropy =     -207.18435123  energy(sigma->0) =     -207.21256192


--------------------------------------------------------------------------------------------------------




--------------------------------------- Iteration      1(  11)  ---------------------------------------


    POTLOK:  cpu time      0.0169: real time      0.0290
    SETDIJ:  cpu time      0.0022: real time      0.0022
     EDDAV:  cpu time      1.5859: real time      1.0644
       DOS:  cpu time      0.0005: real time      0.0005
    CHARGE:  cpu time      0.0051: real time      0.0051
    MIXING:  cpu time      0.0003: real time      0.0003
    --------------------------------------------
      LOOP:  cpu time      1.6109: real time      1.1015

 eigenvalue-minimisations  :   512
 total energy-change (2. order) : 0.1395764E+00  (-0.1506917E+00)
 number of electron     194.9999610 magnetization 
 augmentation part       40.3146736 magnetization 

 Broyden mixing:
  rms(total) = 0.15348E+00    rms(broyden)= 0.15303E+00
  rms(prec ) = 0.20157E+00
  weight for this iteration     100.00

 eigenvalues of (default mixing * dielectric matrix)
  average eigenvalue GAMMA=   0.8788
  2.2980  0.9420  0.6338  0.6338  0.4855  0.2796

 Free energy of the ion-electron system (eV)
  ---------------------------------------------------
  alpha Z        PSCENC =       691.86374690
  Ewald energy   TEWEN  =    -12545.44361039
  -Hartree energ DENC   =     -6543.23051800
  -exchange      EXHF   =         0.00000000
  -V(xc)+E(xc)   XCENC  =       957.65591173
  PAW double counting   =     22274.58604330   -22166.83188585
  entropy T*S    EENTRO =        -0.06386709
  eigenvalues    EBANDS =     -2699.14384607
  atomic energy  EATOM  =     19823.50682924
  Solvation  Ediel_sol  =         0.00000000
  ---------------------------------------------------
  free energy    TOTEN  =      -207.10119623 eV

  energy without entropy =     -207.03732913  energy(sigma->0) =     -207.06926268


--------------------------------------------------------------------------------------------------------




--------------------------------------- Iteration      1(  12)  ---------------------------------------


    POTLOK:  cpu time      0.0156: real time      0.0292
    SETDIJ:  cpu time      0.0022: real time      0.0022
     EDDAV:  cpu time      1.7021: real time      1.1761
       DOS:  cpu time      0.0005: real time      0.0005
    CHARGE:  cpu time      0.0051: real time      0.0051
    MIXING:  cpu time      0.0003: real time      0.0003
    --------------------------------------------
      LOOP:  cpu time      1.7258: real time      1.2135

 eigenvalue-minimisations  :   512
 total energy-change (2. order) : 0.1330551E-01  (-0.4017552E-01)
 number of electron     194.9999609 magnetization 
 augmentation part       40.2917273 magnetization 

 Broyden mixing:
  rms(total) = 0.10455E+00    rms(broyden)= 0.10441E+00
  rms(prec ) = 0.14067E+00
  weight for this iteration     100.00

 eigenvalues of (default mixing * dielectric matrix)
  average eigenvalue GAMMA=   0.8862
  2.3340  1.1516  0.8733  0.6576  0.5216  0.4090  0.2563

 Free energy of the ion-electron system (eV)
  ---------------------------------------------------
  alpha Z        PSCENC =       691.86374690
  Ewald energy   TEWEN  =    -12545.44361039
  -Hartree energ DENC   =     -6546.44351381
  -exchange      EXHF   =         0.00000000
  -V(xc)+E(xc)   XCENC  =       957.80387984
  PAW double counting   =     22308.22879739   -22199.49484885
  entropy T*S    EENTRO =        -0.05690837
  eigenvalues    EBANDS =     -2697.05226267
  atomic energy  EATOM  =     19823.50682924
  Solvation  Ediel_sol  =         0.00000000
  ---------------------------------------------------
  free energy    TOTEN  =      -207.08789072 eV

  energy without entropy =     -207.03098234  energy(sigma->0) =     -207.05943653


--------------------------------------------------------------------------------------------------------




--------------------------------------- Iteration      1(  13)  ---------------------------------------


    POTLOK:  cpu time      0.0158: real time      0.0292
    SETDIJ:  cpu time      0.0022: real time      0.0022
     EDDAV:  cpu time      1.6921: real time      1.1676
       DOS:  cpu time      0.0005: real time      0.0005
    CHARGE:  cpu time      0.0050: real time      0.0050
    MIXING:  cpu time      0.0003: real time      0.0003
    --------------------------------------------
      LOOP:  cpu time      1.7159: real time      1.2049

 eigenvalue-minimisations  :   512
 total energy-change (2. order) : 0.3290465E-02  (-0.1140077E-01)
 number of electron     194.9999609 magnetization 
 augmentation part       40.2710772 magnetization 

 Broyden mixing:
  rms(total) = 0.51281E-01    rms(broyden)= 0.51195E-01
  rms(prec ) = 0.66294E-01
  weight for this iteration     100.00

 eigenvalues of (default mixing * dielectric matrix)
  average eigenvalue GAMMA=   0.9206
  2.4616  1.5365  0.9863  0.5925  0.5925  0.5532  0.3903  0.2518

 Free energy of the ion-electron system (eV)
  ---------------------------------------------------
  alpha Z        PSCENC =       691.86374690
  Ewald energy   TEWEN  =    -12545.44361039
  -Hartree energ DENC   =     -6550.63658070
  -exchange      EXHF   =         0.00000000
  -V(xc)+E(xc)   XCENC  =       957.99272059
  PAW double counting   =     22345.02525897   -22235.01124061
  entropy T*S    EENTRO =        -0.05875558
  eigenvalues    EBANDS =     -2694.32296866
  atomic energy  EATOM  =     19823.50682924
  Solvation  Ediel_sol  =         0.00000000
  ---------------------------------------------------
  free energy    TOTEN  =      -207.08460025 eV

  energy without entropy =     -207.02584467  energy(sigma->0) =     -207.05522246


--------------------------------------------------------------------------------------------------------




--------------------------------------- Iteration      1(  14)  ---------------------------------------


    POTLOK:  cpu time      0.0161: real time      0.0293
    SETDIJ:  cpu time      0.0021: real time      0.0021
     EDDAV:  cpu time      1.5728: real time      1.0522
       DOS:  cpu time      0.0006: real time      0.0006
    CHARGE:  cpu time      0.0052: real time      0.0052
    MIXING:  cpu time      0.0003: real time      0.0003
    --------------------------------------------
      LOOP:  cpu time      1.5972: real time      1.0897

 eigenvalue-minimisations  :   512
 total energy-change (2. order) :-0.2068521E-02  (-0.5258463E-02)
 number of electron     194.9999609 magnetization 
 augmentation part       40.2563257 magnetization 

 Broyden mixing:
  rms(total) = 0.44659E-01    rms(broyden)= 0.44595E-01
  rms(prec ) = 0.64894E-01
  weight for this iteration     100.00

 eigenvalues of (default mixing * dielectric matrix)
  average eigenvalue GAMMA=   0.9092
  2.4967  1.7971  0.8504  0.8504  0.5644  0.5163  0.5163  0.3399  0.2511

 Free energy of the ion-electron system (eV)
  ---------------------------------------------------
  alpha Z        PSCENC =       691.86374690
  Ewald energy   TEWEN  =    -12545.44361039
  -Hartree energ DENC   =     -6553.69389698
  -exchange      EXHF   =         0.00000000
  -V(xc)+E(xc)   XCENC  =       958.14016169
  PAW double counting   =     22376.57238070   -22265.45268730
  entropy T*S    EENTRO =        -0.05770453
  eigenvalues    EBANDS =     -2692.52188810
  atomic energy  EATOM  =     19823.50682924
  Solvation  Ediel_sol  =         0.00000000
  ---------------------------------------------------
  free energy    TOTEN  =      -207.08666877 eV

  energy without entropy =     -207.02896424  energy(sigma->0) =     -207.05781651


--------------------------------------------------------------------------------------------------------




--------------------------------------- Iteration      1(  15)  ---------------------------------------


    POTLOK:  cpu time      0.0150: real time      0.0294
    SETDIJ:  cpu time      0.0022: real time      0.0022
     EDDAV:  cpu time      1.6927: real time      1.1705
       DOS:  cpu time      0.0005: real time      0.0005
    CHARGE:  cpu time      0.0052: real time      0.0052
    MIXING:  cpu time      0.0004: real time      0.0004
    --------------------------------------------
      LOOP:  cpu time      1.7160: real time      1.2082

 eigenvalue-minimisations  :   512
 total energy-change (2. order) : 0.4709345E-03  (-0.3957015E-02)
 number of electron     194.9999609 magnetization 
 augmentation part       40.2496040 magnetization 

 Broyden mixing:
  rms(total) = 0.28832E-01    rms(broyden)= 0.28747E-01
  rms(prec ) = 0.43010E-01
  weight for this iteration     100.00

 eigenvalues of (default mixing * dielectric matrix)
  average eigenvalue GAMMA=   0.9190
  2.6300  1.9622  0.8534  0.8534  0.8629  0.5089  0.5089  0.4673  0.2516  0.2909

 Free energy of the ion-electron system (eV)
  ---------------------------------------------------
  alpha Z        PSCENC =       691.86374690
  Ewald energy   TEWEN  =    -12545.44361039
  -Hartree energ DENC   =     -6555.14012569
  -exchange      EXHF   =         0.00000000
  -V(xc)+E(xc)   XCENC  =       958.19626360
  PAW double counting   =     22380.64808904   -22268.99848675
  entropy T*S    EENTRO =        -0.05826318
  eigenvalues    EBANDS =     -2691.66064061
  atomic energy  EATOM  =     19823.50682924
  Solvation  Ediel_sol  =         0.00000000
  ---------------------------------------------------
  free energy    TOTEN  =      -207.08619784 eV

  energy without entropy =     -207.02793466  energy(sigma->0) =     -207.05706625


--------------------------------------------------------------------------------------------------------




--------------------------------------- Iteration      1(  16)  ---------------------------------------


    POTLOK:  cpu time      0.0168: real time      0.0296
    SETDIJ:  cpu time      0.0022: real time      0.0022
     EDDAV:  cpu time      1.5916: real time      1.0676
       DOS:  cpu time      0.0005: real time      0.0005
    CHARGE:  cpu time      0.0051: real time      0.0051
    MIXING:  cpu time      0.0004: real time      0.0004
    --------------------------------------------
      LOOP:  cpu time      1.6167: real time      1.1055

 eigenvalue-minimisations  :   512
 total energy-change (2. order) : 0.1661712E-03  (-0.1409298E-02)
 number of electron     194.9999609 magnetization 
 augmentation part       40.2447456 magnetization 

 Broyden mixing:
  rms(total) = 0.15256E-01    rms(broyden)= 0.15198E-01
  rms(prec ) = 0.24010E-01
  weight for this iteration     100.00

 eigenvalues of (default mixing * dielectric matrix)
  average eigenvalue GAMMA=   0.8905
  2.6396  1.9611  0.9909  0.9909  0.6435  0.6435  0.5353  0.4308  0.4308  0.2521
  0.2767

 Free energy of the ion-electron system (eV)
  ---------------------------------------------------
  alpha Z        PSCENC =       691.86374690
  Ewald energy   TEWEN  =    -12545.44361039
  -Hartree energ DENC   =     -6556.21143987
  -exchange      EXHF   =         0.00000000
  -V(xc)+E(xc)   XCENC  =       958.24093460
  PAW double counting   =     22386.25408164   -22274.14552967
  entropy T*S    EENTRO =        -0.05786605
  eigenvalues    EBANDS =     -2691.09317807
  atomic energy  EATOM  =     19823.50682924
  Solvation  Ediel_sol  =         0.00000000
  ---------------------------------------------------
  free energy    TOTEN  =      -207.08603167 eV

  energy without entropy =     -207.02816562  energy(sigma->0) =     -207.05709864


--------------------------------------------------------------------------------------------------------




--------------------------------------- Iteration      1(  17)  ---------------------------------------


    POTLOK:  cpu time      0.0172: real time      0.0294
    SETDIJ:  cpu time      0.0021: real time      0.0021
     EDDAV:  cpu time      1.7028: real time      1.1778
       DOS:  cpu time      0.0005: real time      0.0005
    CHARGE:  cpu time      0.0051: real time      0.0051
    MIXING:  cpu time      0.0004: real time      0.0004
    --------------------------------------------
      LOOP:  cpu time      1.7282: real time      1.2154

 eigenvalue-minimisations  :   512
 total energy-change (2. order) : 0.1410165E-03  (-0.3516701E-03)
 number of electron     194.9999609 magnetization 
 augmentation part       40.2461580 magnetization 

 Broyden mixing:
  rms(total) = 0.63049E-02    rms(broyden)= 0.62762E-02
  rms(prec ) = 0.95771E-02
  weight for this iteration     100.00

 eigenvalues of (default mixing * dielectric matrix)
  average eigenvalue GAMMA=   0.9166
  2.6676  2.1172  1.2909  0.9866  0.7810  0.7810  0.5313  0.5313  0.4494  0.3468
  0.2541  0.2620

 Free energy of the ion-electron system (eV)
  ---------------------------------------------------
  alpha Z        PSCENC =       691.86374690
  Ewald energy   TEWEN  =    -12545.44361039
  -Hartree energ DENC   =     -6556.23996780
  -exchange      EXHF   =         0.00000000
  -V(xc)+E(xc)   XCENC  =       958.24078299
  PAW double counting   =     22385.25546519   -22273.05886959
  entropy T*S    EENTRO =        -0.05809878
  eigenvalues    EBANDS =     -2691.15216841
  atomic energy  EATOM  =     19823.50682924
  Solvation  Ediel_sol  =         0.00000000
  ---------------------------------------------------
  free energy    TOTEN  =      -207.08589065 eV

  energy without entropy =     -207.02779187  energy(sigma->0) =     -207.05684126


--------------------------------------------------------------------------------------------------------




--------------------------------------- Iteration      1(  18)  ---------------------------------------


    POTLOK:  cpu time      0.0157: real time      0.0294
    SETDIJ:  cpu time      0.0022: real time      0.0022
     EDDAV:  cpu time      1.5827: real time      1.0597
       DOS:  cpu time      0.0005: real time      0.0005
    CHARGE:  cpu time      0.0050: real time      0.0050
    MIXING:  cpu time      0.0004: real time      0.0004
    --------------------------------------------
      LOOP:  cpu time      1.6065: real time      1.0973

 eigenvalue-minimisations  :   512
 total energy-change (2. order) :-0.3315780E-04  (-0.3317440E-04)
 number of electron     194.9999609 magnetization 
 augmentation part       40.2461140 magnetization 

 Broyden mixing:
  rms(total) = 0.32944E-02    rms(broyden)= 0.32923E-02
  rms(prec ) = 0.46716E-02
  weight for this iteration     100.00

 eigenvalues of (default mixing * dielectric matrix)
  average eigenvalue GAMMA=   0.9527
  2.7817  2.4261  1.6255  0.9588  0.9588  0.6959  0.5860  0.5860  0.4608  0.4608
  0.3303  0.2553  0.2598

 Free energy of the ion-electron system (eV)
  ---------------------------------------------------
  alpha Z        PSCENC =       691.86374690
  Ewald energy   TEWEN  =    -12545.44361039
  -Hartree energ DENC   =     -6556.46450809
  -exchange      EXHF   =         0.00000000
  -V(xc)+E(xc)   XCENC  =       958.24679432
  PAW double counting   =     22382.71174044   -22270.38673268
  entropy T*S    EENTRO =        -0.05808733
  eigenvalues    EBANDS =     -2691.06209622
  atomic energy  EATOM  =     19823.50682924
  Solvation  Ediel_sol  =         0.00000000
  ---------------------------------------------------
  free energy    TOTEN  =      -207.08592381 eV

  energy without entropy =     -207.02783648  energy(sigma->0) =     -207.05688014


--------------------------------------------------------------------------------------------------------




--------------------------------------- Iteration      1(  19)  ---------------------------------------


    POTLOK:  cpu time      0.0157: real time      0.0292
    SETDIJ:  cpu time      0.0022: real time      0.0022
     EDDAV:  cpu time      1.6942: real time      1.1698
       DOS:  cpu time      0.0005: real time      0.0005
    CHARGE:  cpu time      0.0051: real time      0.0051
    MIXING:  cpu time      0.0005: real time      0.0005
    --------------------------------------------
      LOOP:  cpu time      1.7182: real time      1.2073

 eigenvalue-minimisations  :   512
 total energy-change (2. order) :-0.1739108E-04  (-0.1854491E-04)
 number of electron     194.9999609 magnetization 
 augmentation part       40.2460982 magnetization 

 Broyden mixing:
  rms(total) = 0.19717E-02    rms(broyden)= 0.19652E-02
  rms(prec ) = 0.30775E-02
  weight for this iteration     100.00

 eigenvalues of (default mixing * dielectric matrix)
  average eigenvalue GAMMA=   0.9546
  2.8319  2.5207  1.6474  1.1091  0.8037  0.8037  0.8103  0.5450  0.5450  0.4499
  0.4499  0.3317  0.2546  0.2612

 Free energy of the ion-electron system (eV)
  ---------------------------------------------------
  alpha Z        PSCENC =       691.86374690
  Ewald energy   TEWEN  =    -12545.44361039
  -Hartree energ DENC   =     -6556.65334216
  -exchange      EXHF   =         0.00000000
  -V(xc)+E(xc)   XCENC  =       958.25197650
  PAW double counting   =     22380.36720362   -22267.95133333
  entropy T*S    EENTRO =        -0.05811164
  eigenvalues    EBANDS =     -2690.96929995
  atomic energy  EATOM  =     19823.50682924
  Solvation  Ediel_sol  =         0.00000000
  ---------------------------------------------------
  free energy    TOTEN  =      -207.08594120 eV

  energy without entropy =     -207.02782956  energy(sigma->0) =     -207.05688538


--------------------------------------------------------------------------------------------------------




--------------------------------------- Iteration      1(  20)  ---------------------------------------


    POTLOK:  cpu time      0.0176: real time      0.0289
    SETDIJ:  cpu time      0.0022: real time      0.0022
     EDDAV:  cpu time      1.5964: real time      1.0675
       DOS:  cpu time      0.0005: real time      0.0005
    --------------------------------------------
      LOOP:  cpu time      1.6167: real time      1.0990

 eigenvalue-minimisations  :   512
 total energy-change (2. order) :-0.3679597E-06  (-0.3405372E-05)
 number of electron     194.9999609 magnetization 
 augmentation part       40.2460982 magnetization 

 Free energy of the ion-electron system (eV)
  ---------------------------------------------------
  alpha Z        PSCENC =       691.86374690
  Ewald energy   TEWEN  =    -12545.44361039
  -Hartree energ DENC   =     -6556.70888316
  -exchange      EXHF   =         0.00000000
  -V(xc)+E(xc)   XCENC  =       958.25331388
  PAW double counting   =     22379.60690460   -22267.18386805
  entropy T*S    EENTRO =        -0.05806832
  eigenvalues    EBANDS =     -2690.92230626
  atomic energy  EATOM  =     19823.50682924
  Solvation  Ediel_sol  =         0.00000000
  ---------------------------------------------------
  free energy    TOTEN  =      -207.08594157 eV

  energy without entropy =     -207.02787324  energy(sigma->0) =     -207.05690740


--------------------------------------------------------------------------------------------------------




 average (electrostatic) potential at core
  the test charge radii are     1.0397  0.7215  0.7079
  (the norm of the test charge is              1.0000)
       1 -77.3966       2 -77.2898       3 -77.4384       4 -77.0639       5 -77.3558
       6 -77.2674       7 -77.3083       8 -77.0807       9 -70.7028      10 -70.7046
      11 -70.8582      12 -70.7763      13 -70.7038      14 -70.6576      15 -72.2034
      16 -70.8355      17 -69.9830      18 -70.3361      19 -70.3798      20 -70.0949
      21 -69.8817      22 -70.2436      23 -70.3582      24 -70.4847      25 -60.5558
 
 
 
 E-fermi :   5.5445     XC(G=0): -10.3678     alpha+bet :-12.2526

 Fermi energy:         5.5445321974

 k-point     1 :       0.0000    0.0000    0.0000
  band No.  band energies     occupation 
      1     -53.3252      2.00000
      2     -53.2342      2.00000
      3     -53.1894      2.00000
      4     -53.1836      2.00000
      5     -53.1372      2.00000
      6     -53.1115      2.00000
      7     -52.9738      2.00000
      8     -52.9182      2.00000
      9     -41.5770      2.00000
     10     -29.7803      2.00000
     11     -29.6395      2.00000
     12     -29.6139      2.00000
     13     -29.5894      2.00000
     14     -29.5518      2.00000
     15     -29.5199      2.00000
     16     -29.5006      2.00000
     17     -29.4849      2.00000
     18     -29.4680      2.00000
     19     -29.4491      2.00000
     20     -29.4362      2.00000
     21     -29.4331      2.00000
[...]
 -0.001  -0.005   1.976   0.000   0.000  -0.050   0.000   0.002   0.027  -0.004  -0.043   0.009  -0.029  -0.027   0.001   0.039
 -0.001  -0.004   0.000   1.975   0.000   0.000  -0.053   0.003   0.009  -0.016   0.095  -0.055  -0.023  -0.008   0.013  -0.083
 -0.001  -0.010   0.000   0.000   1.975   0.003   0.003  -0.053   0.031   0.008   0.035  -0.054  -0.115  -0.028  -0.007  -0.030
 -0.001   0.155  -0.050   0.000   0.003   0.175   0.001   0.025   0.596   0.185  -0.354   0.085  -0.245  -0.361  -0.117   0.236
 -0.002   0.123   0.000  -0.053   0.003   0.001   0.220   0.022   0.077  -0.024   0.741  -0.127  -0.181  -0.050   0.020  -0.489
 -0.004  -0.158   0.002   0.003  -0.053   0.025   0.022   0.190   0.316   0.074   0.153  -0.305  -0.614  -0.205  -0.052  -0.095
  0.022   0.476   0.027   0.009   0.031   0.596   0.077   0.316   5.749   0.899  -1.075  -0.165  -1.648  -3.460  -0.615   0.755
 -0.001  -0.113  -0.004  -0.016   0.008   0.185  -0.024   0.074   0.899   2.521  -0.698   0.157  -0.315  -0.613  -1.386   0.490
  0.007   0.499  -0.043   0.095   0.035  -0.354   0.741   0.153  -1.075  -0.698  10.178  -1.181  -0.233   0.757   0.490  -6.745
  0.025   0.484   0.009  -0.055  -0.054   0.085  -0.127  -0.305  -0.165   0.157  -1.181   4.646   1.854   0.122  -0.102   0.820
  0.020   0.396  -0.029  -0.023  -0.115  -0.245  -0.181  -0.614  -1.648  -0.315  -0.233   1.854   7.929   1.162   0.238   0.100
 -0.019  -0.311  -0.027  -0.008  -0.028  -0.361  -0.050  -0.205  -3.460  -0.613   0.757   0.122   1.162   2.121   0.400  -0.536
  0.001   0.075   0.001   0.013  -0.007  -0.117   0.020  -0.052  -0.615  -1.386   0.490  -0.102   0.238   0.400   0.804  -0.341
 -0.006  -0.336   0.039  -0.083  -0.030   0.236  -0.489  -0.095   0.755   0.490  -6.745   0.820   0.100  -0.536  -0.341   4.534
 -0.022  -0.338  -0.008   0.048   0.047  -0.054   0.093   0.213   0.122  -0.102   0.817  -2.871  -1.268  -0.083   0.059  -0.573
 -0.018  -0.236   0.026   0.021   0.100   0.164   0.127   0.409   1.160   0.238   0.103  -1.269  -5.210  -0.823  -0.178  -0.034


------------------------ aborting loop because EDIFF is reached ----------------------------------------


    CHARGE:  cpu time      0.0051: real time      0.0051
    FORLOC:  cpu time      0.0003: real time      0.0003
    FORNL :  cpu time      0.0267: real time      0.0267
    STRESS:  cpu time      0.0756: real time      0.0756
    FORCOR:  cpu time      0.0052: real time      0.0052
    FORHAR:  cpu time      0.0013: real time      0.0013
    MIXING:  cpu time      0.0004: real time      0.0004
    OFIELD:  cpu time      0.0000: real time      0.0000

  FORCE on cell =-STRESS in cart. coord.  units (eV):
  Direction    XX          YY          ZZ          XY          YZ          ZX
  --------------------------------------------------------------------------------------
  Alpha Z   691.86375   691.86375   691.86375
  Ewald   -3698.65311 -5207.82367 -3864.87788   307.83701    47.89129  -266.55438
  Hartree  2443.39917  1626.67953  2323.50228   170.45951    30.82578  -248.15305
  E(xc)   -1004.15716 -1006.77919 -1003.83114     0.66613     0.08969    -0.02893
  Local   -1947.01754   352.48460 -1671.57299  -477.28527   -79.99065   523.90549
  n-local  -648.84681  -619.91837  -672.59134    -8.01735    -0.21614     4.69390
  augment   609.21303   602.11182   614.88220     2.14780     0.55681    -0.18740
  Kinetic  3570.40816  3536.37300  3602.98942     3.22807    -0.39035   -13.00259
  Fock        0.00000     0.00000     0.00000     0.00000     0.00000     0.00000
  -------------------------------------------------------------------------------------
  Total      16.20948   -25.00853    20.36429    -0.96410    -1.23356     0.67305
  in kB      88.51244  -136.56001   111.19992    -5.26453    -6.73591     3.67523
  external pressure =       21.05 kB  Pullay stress =        0.00 kB

  kinetic pressure (ideal gas correction) =      4.43 kB
  total pressure  =     25.48 kB
  Total+kin.    91.817    -130.912     115.550      -4.262      -7.000       3.052

 VOLUME and BASIS-vectors are now :
 -----------------------------------------------------------------------------
  energy-cutoff  :      400.00
  volume of cell :      293.41
      direct lattice vectors                 reciprocal lattice vectors
    12.307200000  0.000000000  0.000000000     0.081253250 -0.000000000  0.024756504
     0.000000000  3.766900000  0.000000000     0.000000000  0.265470281 -0.000000000
    -1.928326250  0.000000000  6.328954130     0.000000000  0.000000000  0.158003989

  length of vectors
    12.307200000  3.766900000  6.616200005     0.084941010  0.265470281  0.158003989


 FORCES acting on ions
    electron-ion (+dipol)            ewald-force                    non-local-force                 convergence-correction
 -----------------------------------------------------------------------------------------------
   0.102E+03 0.110E+03 -.660E+02   -.103E+03 -.108E+03 0.683E+02   0.208E+01 -.315E+01 -.214E+01   -.290E-02 -.170E-03 -.561E-02
   0.154E+03 0.198E+02 0.262E+03   -.155E+03 -.202E+02 -.264E+03   0.434E+00 -.739E-01 0.367E+00   -.158E-01 -.355E-03 -.166E-02
   0.129E+03 -.479E+01 -.557E+02   -.132E+03 0.407E+01 0.556E+02   0.126E+01 0.496E+00 -.124E+01   0.680E-02 0.148E-02 0.110E-01
   0.201E+03 -.167E+02 0.114E+03   -.201E+03 0.162E+02 -.114E+03   -.583E+00 0.445E+00 0.159E+01   0.157E-01 0.172E-02 -.294E-02
   -.161E+03 -.130E+02 0.456E+01   0.161E+03 0.128E+02 -.443E+01   -.102E+01 0.525E+00 0.164E+01   0.199E-01 -.576E-03 -.871E-03
   -.147E+03 -.178E+02 -.124E+03   0.147E+03 0.170E+02 0.124E+03   -.348E+00 0.630E+00 -.104E+01   0.136E-01 0.147E-02 0.131E-01
   -.152E+03 -.154E+02 0.162E+03   0.154E+03 0.154E+02 -.162E+03   -.104E+01 0.224E+00 0.123E+01   -.193E-01 -.146E-03 -.432E-02
   -.787E+02 -.248E+02 -.190E+03   0.769E+02 0.253E+02 0.190E+03   0.982E+00 -.161E-01 -.159E+01   -.140E-01 -.376E-03 -.607E-02
   0.308E+01 0.517E+02 0.538E+02   0.494E+00 -.558E+02 -.494E+02   -.287E+01 0.433E+01 -.351E+01   0.219E-02 0.899E-03 -.244E-02
   0.889E+02 0.476E+02 -.544E+02   -.897E+02 -.502E+02 0.567E+02   0.102E+01 0.240E+01 -.688E+00   -.344E-02 0.905E-03 0.552E-02
   -.199E+02 -.314E+02 0.618E+02   0.246E+02 0.341E+02 -.568E+02   -.444E+01 -.286E+01 -.462E+01   0.540E-02 0.145E-02 0.141E-02
   0.201E+03 0.149E+02 0.545E+01   -.209E+03 -.168E+02 -.750E+01   0.834E+01 0.188E+01 0.742E+00   0.287E-02 0.392E-03 -.102E-02
   -.534E+02 -.567E+02 -.260E+02   0.497E+02 0.617E+02 0.184E+02   0.444E+01 -.482E+01 0.658E+01   0.780E-02 -.316E-03 0.212E-03
   -.184E+03 0.954E+01 0.144E+01   0.189E+03 -.106E+02 -.215E+01   -.509E+01 0.101E+01 0.109E+01   0.506E-02 0.239E-03 0.625E-02
   -.494E+02 0.107E+02 -.998E+02   0.476E+02 -.120E+02 0.943E+02   0.175E+01 0.148E+01 0.544E+01   -.756E-02 0.775E-03 0.266E-02
   -.935E+02 -.872E+01 -.162E+01   0.947E+02 0.913E+01 0.127E+01   -.909E+00 -.254E+00 0.442E+00   -.555E-02 0.952E-04 -.118E-01
   0.143E+03 -.113E+03 -.800E+02   -.136E+03 0.120E+03 0.834E+02   -.595E+01 -.476E+01 -.373E+01   -.565E-02 -.399E-03 -.392E-02
   0.102E+03 -.736E+02 0.101E+03   -.941E+02 0.801E+02 -.913E+02   -.770E+01 -.672E+01 -.975E+01   -.148E-01 -.584E-03 -.438E-02
   0.159E+03 -.513E+02 -.829E+02   -.153E+03 0.557E+02 0.892E+02   -.604E+01 -.439E+01 -.578E+01   0.674E-02 -.499E-04 0.668E-02
   0.944E+02 0.528E+02 0.501E+02   -.891E+02 -.577E+02 -.396E+02   -.621E+01 0.496E+01 -.102E+02   0.110E-01 -.440E-03 0.509E-03
   -.159E+03 -.275E+02 0.859E+02   0.155E+03 0.304E+02 -.930E+02   0.512E+01 -.298E+01 0.685E+01   0.120E-01 0.529E-03 -.315E-03
   -.847E+02 0.663E+02 -.361E+02   0.814E+02 -.721E+02 0.236E+02   0.236E+01 0.531E+01 0.113E+02   0.865E-02 0.534E-03 0.475E-02
   -.123E+03 0.527E+02 0.865E+02   0.114E+03 -.570E+02 -.808E+02   0.907E+01 0.420E+01 -.595E+01   -.161E-01 -.912E-03 -.576E-03
   -.190E+02 0.197E+02 -.880E+02   0.104E+02 -.203E+02 0.763E+02   0.873E+01 -.177E+00 0.110E+02   -.881E-02 0.425E-03 -.845E-02
   -.575E+02 0.121E+01 -.854E+02   0.559E+02 -.106E+01 0.821E+02   0.191E+01 -.137E+00 0.383E+01   -.301E-02 0.269E-03 0.529E-03
 -----------------------------------------------------------------------------------------------
   -.527E+01 0.243E+01 -.187E+01   -.142E-13 0.517E-13 -.114E-12   0.529E+01 -.245E+01 0.186E+01   0.833E-03 0.686E-02 -.175E-02
 
 
 POSITION                                       TOTAL-FORCE (eV/Angst)
 -----------------------------------------------------------------------------------
     -0.33870      0.03953      4.49877         1.242296     -0.772599      0.123917
      1.74268      0.15486      1.75508        -0.565558     -0.500764     -0.986324
      6.07244      2.04934      4.67298        -1.483254     -0.224106     -1.267496
      7.95077      1.74517      1.73026        -0.035473     -0.030713      1.442516
     10.60792      0.07760      1.63524        -1.177874      0.367588      1.767240
      8.64278      3.66257      4.59155         0.032362     -0.217004     -0.916127
      4.48251      1.76343      1.73723         0.843858      0.209651      1.441788
      2.37134      1.84289      4.63442        -0.869925      0.435410     -1.511301
     -0.02278      3.68095      2.30748         0.702697      0.157660      0.907909
     -0.39868      3.68714      6.25581         0.242769     -0.230893      1.600053
      6.14488      1.94302      2.43683         0.287256     -0.165925      0.411133
      7.47744      1.81157      0.04228         0.053083      0.025830     -1.311987
     10.28577      0.19405      3.96019         0.693295      0.211085     -1.089121
      8.98748      3.71707      6.29577         0.618593     -0.074451      0.384951
      4.21503      1.83685      4.07326        -0.041539      0.238219     -0.032110
      4.51200      1.82118      0.02622         0.302593      0.148592      0.080963
      0.44505      1.65558      4.65204         0.491334      2.095799     -0.331422
      2.35892      1.85837      2.23871         0.219624     -0.217685      0.301570
      6.77035      0.06187      4.83507        -0.189191      0.015951      0.558384
      8.60206      0.01337      2.25354        -0.959032      0.024250      0.286473
      9.82830      1.91225      1.41228         0.586922     -0.153736     -0.300537
      8.15265      1.95272      4.03103        -0.899230     -0.489182     -1.138826
      3.82121      3.75203      2.06276        -0.414553     -0.100855     -0.219186
      1.93460      3.71779      4.00015         0.050343     -0.780080     -0.750069
      4.02635      3.73266      3.85917         0.297600      0.017974      0.530805
 -----------------------------------------------------------------------------------
    total drift:                                0.028997     -0.009985     -0.016804


--------------------------------------------------------------------------------------------------------



  FREE ENERGIE OF THE ION-ELECTRON SYSTEM (eV)
  ---------------------------------------------------
  free  energy   TOTEN  =      -213.67346237 eV

  energy  without entropy=     -213.58725755  energy(sigma->0) =     -213.63035996
 
 d Force =-0.3594887E+00[-0.933E+00, 0.214E+00]  d Energy =-0.3550313E+00-0.446E-02
 d Force =-0.1250846E+02[-0.201E+02,-0.491E+01]  d Ewald  =-0.1247000E+02-0.385E-01


--------------------------------------------------------------------------------------------------------


    POTLOK:  cpu time      0.0084: real time      0.0084


--------------------------------------------------------------------------------------------------------


    MLFFLR:  cpu time      0.0992: real time      0.0992
 stress matrix after NEB project (eV)
     16.20948     -0.96410      0.67305
     -0.96410    -25.00853     -1.23356
      0.67305     -1.23356     20.36429
  FORCES: max atom, RMS     2.177986    1.273451
  FORCE total and by dimension    6.367254    2.095799
  Stress total and by dimension   36.175772   25.008534
           RANDOM_SEED =         730825617              150                0
   IONSTEP:  cpu time      0.0017: real time      0.0017

  ENERGY OF THE ELECTRON-ION-THERMOSTAT SYSTEM (eV)
  ---------------------------------------------------
% ion-electron   TOTEN  =      -213.673462  see above
  kinetic energy EKIN   =         1.161462
  kin. lattice  EKIN_LAT=         0.000000  (temperature  374.39 K)
  nose potential ES     =         6.709226
  nose kinetic   EPS    =         0.053604
  ---------------------------------------------------
  total energy   ETOTAL =      -205.749170 eV

  maximum distance moved by ions :      0.30E-02



--------------------------------------- Ionic step      110  -------------------------------------------



  ML FORCE on cell =-STRESS in cart. coord. units (eV/cell)
  Direction    XX          YY          ZZ          XY          YZ          ZX
  --------------------------------------------------------------------------------------
  Total:     19.45780   -14.14911    19.69524     0.59228    -0.28952     2.55167
  in kB     106.25003   -77.26173   107.54655     3.23417    -1.58093    13.93347
  external pressure =       45.51 kB  Pullay stress =        0.00 kB

  kinetic pressure (ideal gas correction) =      4.04 kB
  total pressure  =     49.55 kB
  Total+kin.   109.133     -71.926     111.449       4.150      -1.694      13.321
  volume of cell :      293.41
      direct lattice vectors                 reciprocal lattice vectors
    12.307200000  0.000000000  0.000000000     0.081253250 -0.000000000  0.024756504
     0.000000000  3.766900000  0.000000000     0.000000000  0.265470281 -0.000000000
    -1.928326250  0.000000000  6.328954130     0.000000000  0.000000000  0.158003989

  length of vectors
    12.307200000  3.766900000  6.616200005     0.084941010  0.265470281  0.158003989


  POSITION                                       TOTAL-FORCE (eV/Angst) (ML)
 -----------------------------------------------------------------------------------
     -0.34012      0.04503      4.49514         1.769475     -1.189106      0.197600
      1.74758      0.15738      1.75348        -0.861401     -1.177178     -1.136604
      6.07616      2.05388      4.67732        -0.971912     -0.610383     -1.173986
      7.95131      1.74684      1.72769         1.281074      0.304894      0.514373
     10.60746      0.08053      1.63617        -1.129081     -0.009200      0.178243
      8.64258      3.66345      4.59195        -0.094710     -0.228178      0.739752
      4.48252      1.76381      1.73813         0.525030      0.328319      0.432888
      2.37278      1.84141      4.63456        -0.998926     -0.498054      0.551739
     -0.02451      3.68149      2.31089         0.308442      0.233020      1.046617
     -0.40220      3.68891      6.25349         0.043019      0.014549      0.464345
      6.14851      1.93789      2.43522         1.097292      0.174361      0.075701
      7.47582      1.80451      0.04080         0.394980     -0.138573     -1.423437
     10.28370      0.19314      3.96587         1.322640      0.675113     -0.027037
      8.98021      3.71457      6.29510         0.094437     -0.123352      0.247125
      4.21580      1.82553      4.07377        -0.764125      0.187052      0.394739
      4.51063      1.82412      0.02796         0.618416      0.188086     -0.851232
      0.44198      1.65533      4.65420        -0.110246      1.759666     -0.225909
      2.35342      1.85387      2.24288        -0.114903      0.386661     -0.023854
      6.77593      0.06194      4.82715         0.746161     -0.026912      0.093704
      8.59935      0.00999      2.24877        -0.293569      0.262562      0.245573
      9.82570      1.90905      1.41552         0.383123      0.053856      0.273800
      8.15083      1.95013      4.03023        -1.453833     -0.055492     -0.426314
      3.82189      3.74479      2.05498        -1.306260     -0.682928      0.111807
      1.93395      3.71085      4.00685        -0.573274      0.073377     -0.651973
      4.02125      3.73049      3.86605         0.088153      0.097841      0.372339
 -----------------------------------------------------------------------------------
    total drift:                               -0.000000      0.000000      0.000000


--------------------------------------------------------------------------------------------------------



  ML FREE ENERGIE OF THE ION-ELECTRON SYSTEM (eV)
  ---------------------------------------------------
  free  energy ML TOTEN  =      -214.08157835 eV

  ML energy  without entropy=     -214.08157835  ML energy(sigma->0) =     -214.08157835

      MLFF:  cpu time      0.0324: real time      0.0254
     LOOP+:  cpu time     25.0106: real time     17.0386
 stress matrix after NEB project (eV)
     19.45780      0.59228      2.55167
      0.59228    -14.14911     -0.28952
      2.55167     -0.28952     19.69524
  FORCES: max atom, RMS     2.141043    1.192882
  FORCE total and by dimension    5.964408    1.769475
  Stress total and by dimension   31.314485   19.695237
           RANDOM_SEED =         730825617              150                0
   IONSTEP:  cpu time      0.0015: real time      0.0020

  ENERGY OF THE ELECTRON-ION-THERMOSTAT SYSTEM (eV)
  ---------------------------------------------------
% ion-electron   TOTEN  =      -214.081578  see above
  kinetic energy EKIN   =         1.068932
  kin. lattice  EKIN_LAT=         0.000000  (temperature  344.57 K)
  nose potential ES     =         6.761055
  nose kinetic   EPS    =         0.063588
  ---------------------------------------------------
  total energy   ETOTAL =      -206.188004 eV



--------------------------------------- Ionic step      111  -------------------------------------------



  ML FORCE on cell =-STRESS in cart. coord. units (eV/cell)
  Direction    XX          YY          ZZ          XY          YZ          ZX
  --------------------------------------------------------------------------------------
  Total:     19.73127   -13.61545    19.50924     0.70893    -0.27713     2.57937
  in kB     107.74333   -74.34766   106.53090     3.87114    -1.51330    14.08472
  external pressure =       46.64 kB  Pullay stress =        0.00 kB

  kinetic pressure (ideal gas correction) =      3.76 kB
  total pressure  =     50.40 kB
  Total+kin.   110.438     -69.416     110.178       4.769      -1.518      13.439
  volume of cell :      293.41
      direct lattice vectors                 reciprocal lattice vectors
    12.307200000  0.000000000  0.000000000     0.081253250 -0.000000000  0.024756504
     0.000000000  3.766900000  0.000000000     0.000000000  0.265470281 -0.000000000
    -1.928326250  0.000000000  6.328954130     0.000000000  0.000000000  0.158003989

  length of vectors
    12.307200000  3.766900000  6.616200005     0.084941010  0.265470281  0.158003989


  POSITION                                       TOTAL-FORCE (eV/Angst) (ML)
 -----------------------------------------------------------------------------------
     -0.34116      0.05014      4.49166         1.798297     -1.253807      0.289894
      1.75216      0.15959      1.75169        -1.018406     -1.325583     -1.081703
      6.07958      2.05816      4.68131        -0.953825     -0.696123     -1.379660
      7.95209      1.74851      1.72531         1.179902      0.246319      0.529691
     10.60680      0.08337      1.63710        -1.144382     -0.044120      0.179856
      8.64238      3.66426      4.59248        -0.063545     -0.304110      0.654571
      4.48262      1.76425      1.73909         0.706606      0.285616      0.397649
      2.37397      1.83988      4.63481        -1.060981     -0.499709      0.660918
     -0.02601      3.68215      2.31482         0.375338      0.263130      0.934320
     -0.40559      3.69063      6.25152         0.089500      0.033468      0.475164
      6.15269     