<?xml version="1.0" encoding="ISO-8859-1"?>
<modeling>
 <generator>
  <i name="program" type="string">vasp </i>
  <i name="version" type="string">6.4.0  </i>
  <i name="subversion" type="string">14Feb23 (build Mar 16 2023 23:21:51) complex                          parallel </i>
  <i name="platform" type="string">LinuxNV_CrayMPICH </i>
  <i name="date" type="string">2023 07 27 </i>
  <i name="time" type="string">08:36:25 </i>
 </generator>
 <incar>
  <i type="string" name="SYSTEM">AIMD-MLFF-ON-THE-FLY</i>
  <i type="int" name="ISTART">     0</i>
  <i type="int" name="ICHARG">     2</i>
  <i type="int" name="NELM">    40</i>
  <i name="EDIFF">      0.00001000</i>
  <i type="int" name="NSW">  3000</i>
  <i type="int" name="ISIF">     2</i>
  <i type="int" name="ISYM">     0</i>
  <i name="ENCUT">    400.00000000</i>
  <i name="POTIM">      1.00000000</i>
  <i name="TEBEG">    300.00000000</i>
  <i name="SMASS">      0.00000000</i>
  <i type="string" name="LREAL">Auto</i>
  <i type="int" name="ISMEAR">     0</i>
  <i name="SIGMA">      0.10000000</i>
  <i type="logical" name="LWAVE"> F  </i>
  <i type="logical" name="LCHARG"> F  </i>
  <i type="logical" name="LVTOT"> F  </i>
  <i type="logical" name="LVHAR"> F  </i>
  <i type="logical" name="LELF"> F  </i>
  <i type="string" name="GGA">PE</i>
  <i type="logical" name="ML_LMLFF"> T  </i>
  <i type="int" name="ML_ISTART">     0</i>
  <i type="int" name="MDALGO">     2</i>
 </incar>
 <primitive_cell>
  <structure name="primitive_cell" >
   <crystal>
    <varray name="basis" >
     <v>      12.30720000       0.00000000       0.00000000 </v>
     <v>       0.00000000       3.76690000       0.00000000 </v>
     <v>      -1.92832625       0.00000000       6.32895413 </v>
    </varray>
    <i name="volume">    293.41026081 </i>
    <varray name="rec_basis" >
     <v>       0.08125325      -0.00000000       0.02475650 </v>
     <v>       0.00000000       0.26547028      -0.00000000 </v>
     <v>       0.00000000       0.00000000       0.15800399 </v>
    </varray>
   </crystal>
   <varray name="positions" >
    <v>       0.09993000       0.00000000       0.71040000 </v>
    <v>       0.19529000       0.00000000       0.28376000 </v>
    <v>       0.59993000       0.50000000       0.71040000 </v>
    <v>       0.69529000       0.50000000       0.28376000 </v>
    <v>       0.90007000       0.00000000       0.28960000 </v>
    <v>       0.80471000       0.00000000       0.71624000 </v>
    <v>       0.40007000       0.50000000       0.28960000 </v>
    <v>       0.30471000       0.50000000       0.71624000 </v>
    <v>       0.05835000       0.00000000       0.36998000 </v>
    <v>       0.13281000       0.00000000       0.00471000 </v>
    <v>       0.55835000       0.50000000       0.36998000 </v>
    <v>       0.63281000       0.50000000       0.00471000 </v>
    <v>       0.94165000       0.00000000       0.63002000 </v>
    <v>       0.86719000       0.00000000       0.99529000 </v>
    <v>       0.44165000       0.50000000       0.63002000 </v>
    <v>       0.36719000       0.50000000       0.99529000 </v>
    <v>       0.13807000       0.50000000       0.70660000 </v>
    <v>       0.23651000       0.50000000       0.34750000 </v>
    <v>       0.63807000       0.00000000       0.70660000 </v>
    <v>       0.73651000       0.00000000       0.34750000 </v>
    <v>       0.86193000       0.50000000       0.29340000 </v>
    <v>       0.76349000       0.50000000       0.65250000 </v>
    <v>       0.36193000       0.00000000       0.29340000 </v>
    <v>       0.26349000       0.00000000       0.65250000 </v>
    <v>       0.45119000       0.88036000       0.63550000 </v>
   </varray>
  </structure>
  <varray name="primitive_index" >
   <v type="int" >        1 </v>
   <v type="int" >        2 </v>
   <v type="int" >        3 </v>
   <v type="int" >        4 </v>
   <v type="int" >        5 </v>
   <v type="int" >        6 </v>
   <v type="int" >        7 </v>
   <v type="int" >        8 </v>
   <v type="int" >        9 </v>
   <v type="int" >       10 </v>
   <v type="int" >       11 </v>
   <v type="int" >       12 </v>
   <v type="int" >       13 </v>
   <v type="int" >       14 </v>
   <v type="int" >       15 </v>
   <v type="int" >       16 </v>
   <v type="int" >       17 </v>
   <v type="int" >       18 </v>
   <v type="int" >       19 </v>
   <v type="int" >       20 </v>
   <v type="int" >       21 </v>
   <v type="int" >       22 </v>
   <v type="int" >       23 </v>
   <v type="int" >       24 </v>
   <v type="int" >       25 </v>
  </varray>
 </primitive_cell>
 <kpoints>
  <generation param="Gamma">
   <v type="int" name="divisions">       1        1        1 </v>
   <v name="usershift">      0.00000000       0.00000000       0.00000000 </v>
   <v name="genvec1">      1.00000000       0.00000000      -0.00000000 </v>
   <v name="genvec2">      0.00000000       1.00000000       0.00000000 </v>
   <v name="genvec3">      0.00000000       0.00000000       1.00000000 </v>
   <v name="shift">      0.00000000       0.00000000       0.00000000 </v>
  </generation>
  <varray name="kpointlist" >
   <v>       0.00000000       0.00000000       0.00000000 </v>
  </varray>
  <varray name="weights" >
   <v>       1.00000000 </v>
  </varray>
 </kpoints>
 <parameters>
  <separator name="general" >
   <i type="string" name="SYSTEM">AIMD-MLFF-ON-THE-FLY</i>
   <i type="logical" name="LCOMPAT"> F  </i>
  </separator>
  <separator name="electronic" >
   <i type="string" name="PREC">normal</i>
   <i name="ENMAX">    400.00000000</i>
   <i name="ENAUG">    628.94500000</i>
   <i name="EDIFF">      0.00001000</i>
   <i type="int" name="IALGO">    38</i>
   <i type="int" name="IWAVPR">    11</i>
   <i type="int" name="NBANDS">   128</i>
   <i type="int" name="NBANDSLOW">    -1</i>
   <i type="int" name="NBANDSHIGH">    -1</i>
   <i name="NELECT">    195.00000000</i>
   <i type="int" name="TURBO">     0</i>
   <i type="int" name="IRESTART">     0</i>
   <i type="int" name="NREBOOT">     0</i>
   <i type="int" name="NMIN">     0</i>
   <i name="EREF">      0.00000000</i>
   <separator name="electronic smearing" >
    <i type="int" name="ISMEAR">     0</i>
    <i name="SIGMA">      0.10000000</i>
    <i name="KSPACING">      0.50000000</i>
    <i type="logical" name="KGAMMA"> T  </i>
    <i type="logical" name="KBLOWUP"> T  </i>
   </separator>
   <separator name="electronic projectors" >
    <i type="logical" name="LREAL"> T  </i>
    <v name="ROPT">     -0.00050000     -0.00050000     -0.00050000</v>
    <i type="int" name="LMAXPAW">  -100</i>
    <i type="int" name="LMAXMIX">     2</i>
    <i type="logical" name="NLSPLINE"> F  </i>
   </separator>
   <separator name="electronic startup" >
    <i type="int" name="ISTART">     0</i>
    <i type="int" name="ICHARG">     2</i>
    <i type="int" name="INIWAV">     1</i>
   </separator>
   <separator name="electronic spin" >
    <i type="int" name="ISPIN">     1</i>
    <i type="logical" name="LNONCOLLINEAR"> F  </i>
    <v name="MAGMOM">      1.00000000      1.00000000      1.00000000      1.00000000      1.00000000      1.00000000      1.00000000      1.00000000      1.00000000      1.00000000      1.00000000      1.00000000      1.00000000      1.00000000      1.00000000      1.00000000      1.00000000      1.00000000      1.00000000      1.00000000
      1.00000000      1.00000000      1.00000000      1.00000000      1.00000000</v>
    <i name="NUPDOWN">     -1.00000000</i>
    <i type="logical" name="LSORBIT"> F  </i>
    <v name="SAXIS">      0.00000000      0.00000000      1.00000000</v>
    <i type="logical" name="LSPIRAL"> F  </i>
    <v name="QSPIRAL">      0.00000000      0.00000000      0.00000000</v>
    <i type="logical" name="LZEROZ"> F  </i>
   </separator>
   <separator name="electronic exchange-correlation" >
    <i type="logical" name="LASPH"> F  </i>
    <i type="logical" name="LMETAGGA"> F  </i>
   </separator>
   <separator name="electronic convergence" >
    <i type="int" name="NELM">    40</i>
    <i type="int" name="NELMDL">    -5</i>
    <i type="int" name="NELMIN">     2</i>
    <i name="ENINI">    400.00000000</i>
    <separator name="electronic convergence detail" >
     <i type="logical" name="LDIAG"> T  </i>
     <i type="logical" name="LSUBROT"> F  </i>
     <i name="WEIMIN">      0.00100000</i>
     <i name="EBREAK">      0.00000002</i>
     <i name="DEPER">      0.30000000</i>
     <i type="int" name="NRMM">     4</i>
     <i name="TIME">      0.40000000</i>
    </separator>
   </separator>
   <separator name="electronic mixer" >
    <i name="AMIX">      0.40000000</i>
    <i name="BMIX">      1.00000000</i>
    <i name="AMIN">      0.10000000</i>
    <i name="AMIX_MAG">      1.60000000</i>
    <i name="BMIX_MAG">      1.00000000</i>
    <separator name="electronic mixer details" >
     <i type="int" name="IMIX">     4</i>
     <i type="logical" name="MIXFIRST"> F  </i>
     <i type="int" name="MAXMIX">   -45</i>
     <i name="WC">    100.00000000</i>
     <i type="int" name="INIMIX">     1</i>
     <i type="int" name="MIXPRE">     1</i>
     <i type="int" name="MREMOVE">     5</i>
    </separator>
   </separator>
   <separator name="electronic dipolcorrection" >
    <i type="logical" name="LDIPOL"> F  </i>
    <i type="logical" name="LMONO"> F  </i>
    <i type="int" name="IDIPOL">     0</i>
    <i name="EPSILON">      1.00000000</i>
    <v name="DIPOL">   -100.00000000   -100.00000000   -100.00000000</v>
    <i name="EFIELD">      0.00000000</i>
   </separator>
  </separator>
  <separator name="grids" >
   <i type="int" name="NGX">    60</i>
   <i type="int" name="NGY">    18</i>
   <i type="int" name="NGZ">    32</i>
   <i type="int" name="NGXF">   120</i>
   <i type="int" name="NGYF">    36</i>
   <i type="int" name="NGZF">    64</i>
   <i type="logical" name="ADDGRID"> F  </i>
  </separator>
  <separator name="ionic" >
   <i type="int" name="NSW">  3000</i>
   <i type="int" name="IBRION">     0</i>
   <i type="int" name="MDALGO">     2</i>
   <i type="int" name="ISIF">     2</i>
   <i name="PSTRESS">      0.00000000</i>
   <i name="EDIFFG">      0.00010000</i>
   <i type="int" name="NFREE">     0</i>
   <i name="POTIM">      1.00000000</i>
   <i name="SMASS">      0.00961086</i>
   <i name="SCALEE">      1.00000000</i>
  </separator>
  <separator name="ionic md" >
   <i name="TEBEG">    300.00000000</i>
   <i name="TEEND">    300.00000000</i>
   <i type="int" name="NBLOCK">     1</i>
   <i type="int" name="KBLOCK">  3000</i>
   <i type="int" name="NPACO">   256</i>
   <i name="APACO">     10.00000000</i>
  </separator>
  <separator name="symmetry" >
   <i type="int" name="ISYM">     0</i>
   <i name="SYMPREC">      0.00001000</i>
  </separator>
  <separator name="dos" >
   <i type="int" name="LORBIT">     0</i>
   <v name="RWIGS">     -1.00000000     -1.00000000     -1.00000000</v>
   <i type="int" name="NEDOS">   301</i>
   <i name="EMIN">     10.00000000</i>
   <i name="EMAX">    -10.00000000</i>
   <i name="EFERMI">      0.00000000</i>
  </separator>
  <separator name="writing" >
   <i type="int" name="NWRITE">     2</i>
   <i type="logical" name="LWAVE"> F  </i>
   <i type="logical" name="LDOWNSAMPLE"> F  </i>
   <i type="logical" name="LCHARG"> F  </i>
   <i type="logical" name="LPARD"> F  </i>
   <i type="logical" name="LVTOT"> F  </i>
   <i type="logical" name="LVHAR"> F  </i>
   <i type="logical" name="LELF"> F  </i>
   <i type="logical" name="LOPTICS"> F  </i>
   <v name="STM">      0.00000000      0.00000000      0.00000000      0.00000000      0.00000000      0.00000000      0.00000000</v>
  </separator>
  <separator name="performance" >
   <i type="int" name="NPAR">   128</i>
   <i type="int" name="NSIM">     4</i>
   <i type="int" name="NBLK">    -1</i>
   <i type="logical" name="LPLANE"> T  </i>
   <i type="logical" name="LSCALAPACK"> T  </i>
   <i type="logical" name="LSCAAWARE"> T  </i>
   <i type="logical" name="LSCALU"> F  </i>
   <i type="logical" name="LASYNC"> F  </i>
   <i type="logical" name="LORBITALREAL"> F  </i>
  </separator>
  <separator name="miscellaneous" >
   <i type="int" name="IDIOT">     3</i>
   <i type="int" name="PHON_NSTRUCT">    -1</i>
   <i type="logical" name="LMUSIC"> F  </i>
   <v name="POMASS">     47.88000000     16.00000000      7.01000000</v>
   <v name="DARWINR">      0.00000000      0.00000000      0.00000000</v>
   <v name="DARWINV">      1.00000000      1.00000000      1.00000000</v>
   <i type="logical" name="LCORR"> T  </i>
  </separator>
  <i type="logical" name="GGA_COMPAT"> T  </i>
  <i type="logical" name="LBERRY"> F  </i>
  <i type="int" name="ICORELEVEL">     0</i>
  <i type="logical" name="LDAU"> F  </i>
  <i type="int" name="I_CONSTRAINED_M">     0</i>
  <separator name="electronic exchange-correlation" >
   <i type="string" name="GGA">PE</i>
   <i type="int" name="VOSKOWN">     0</i>
   <i type="logical" name="LHFCALC"> F  </i>
   <i type="string" name="PRECFOCK"></i>
   <i type="logical" name="LSYMGRAD"> F  </i>
   <i type="logical" name="LHFONE"> F  </i>
   <i type="logical" name="LRHFCALC"> F  </i>
   <i type="logical" name="LTHOMAS"> F  </i>
   <i type="logical" name="LMODELHF"> F  </i>
   <i type="logical" name="LFOCKACE"> F  </i>
   <i name="ENCUT4O">     -1.00000000</i>
   <i type="int" name="EXXOEP">     0</i>
   <i type="int" name="FOURORBIT">     0</i>
   <i name="AEXX">      0.00000000</i>
   <i name="HFALPHA">      0.00000000</i>
   <i name="MCALPHA">      0.00000000</i>
   <i name="ALDAX">      1.00000000</i>
   <i name="AGGAX">      1.00000000</i>
   <i name="ALDAC">      1.00000000</i>
   <i name="AGGAC">      1.00000000</i>
   <i type="int" name="NKREDX">     1</i>
   <i type="int" name="NKREDY">     1</i>
   <i type="int" name="NKREDZ">     1</i>
   <i type="logical" name="SHIFTRED"> F  </i>
   <i type="logical" name="ODDONLY"> F  </i>
   <i type="logical" name="EVENONLY"> F  </i>
   <i type="int" name="LMAXFOCK">     0</i>
   <i type="int" name="NMAXFOCKAE">     0</i>
   <i type="logical" name="LFOCKAEDFT"> F  </i>
   <i name="HFSCREEN">      0.00000000</i>
   <i name="HFSCREENC">      0.00000000</i>
   <i type="int" name="NBANDSGWLOW">     0</i>
  </separator>
  <separator name="vdW DFT" >
   <i type="logical" name="LUSE_VDW"> F  </i>
   <i type="int" name="IVDW_NL">     1</i>
   <i type="logical" name="LSPIN_VDW"> F  </i>
   <i name="Zab_VDW">     -0.84910000</i>
   <i name="PARAM1">      0.12340000</i>
   <i name="PARAM2">      1.00000000</i>
   <i name="PARAM3">      0.00000000</i>
  </separator>
  <separator name="model GW" >
   <i type="int" name="MODEL_GW">     0</i>
   <i name="MODEL_EPS0">      7.04184626</i>
   <i name="MODEL_ALPHA">      1.00000000</i>
  </separator>
  <separator name="linear response parameters" >
   <i type="logical" name="LEPSILON"> F  </i>
   <i type="logical" name="LRPA"> F  </i>
   <i type="logical" name="LNABLA"> F  </i>
   <i type="logical" name="LVEL"> F  </i>
   <i name="CSHIFT">      0.10000000</i>
   <i name="OMEGAMAX">     -1.00000000</i>
   <i name="DEG_THRESHOLD">      0.00200000</i>
   <i name="RTIME">     -0.10000000</i>
   <i name="WPLASMAI">      0.00000000</i>
   <v name="DFIELD">      0.00000000      0.00000000      0.00000000</v>
   <v name="WPLASMA">      0.00000000      0.00000000      0.00000000      0.00000000      0.00000000      0.00000000      0.00000000      0.00000000      0.00000000</v>
  </separator>
  <separator name="orbital magnetization" >
   <i type="logical" name="NUCIND"> F  </i>
   <v name="MAGPOS">      0.00000000      0.00000000      0.00000000</v>
   <i type="logical" name="LNICSALL"> T  </i>
   <i type="logical" name="ORBITALMAG"> F  </i>
   <i type="logical" name="LMAGBLOCH"> F  </i>
   <i type="logical" name="LCHIMAG"> F  </i>
   <i type="logical" name="LGAUGE"> T  </i>
   <i type="int" name="MAGATOM">     0</i>
   <v name="MAGDIPOL">      0.00000000      0.00000000      0.00000000</v>
   <v name="AVECCONST">      0.00000000      0.00000000      0.00000000</v>
  </separator>
  <separator name="response functions" >
   <i type="logical" name="LALL_IN_ONE"> F  </i>
   <i type="int" name="IALL_IN_ONE">    -1</i>
   <i type="int" name="NBANDS_WAVE">    -1</i>
   <i type="logical" name="LFINITE_TEMPERATURE"> F  </i>
   <i type="logical" name="LADDER"> F  </i>
   <i type="logical" name="LRPAFORCE"> F  </i>
   <i type="logical" name="LFXC"> F  </i>
   <i type="logical" name="LHARTREE"> T  </i>
   <i type="int" name="IBSE">     0</i>
   <v type="int" name="KPOINT">    -1     0     0     0</v>
   <i type="logical" name="LTCTC"> F  </i>
   <i type="logical" name="LTCTE"> F  </i>
   <i type="logical" name="LTETE"> F  </i>
   <i type="logical" name="LTRIPLET"> F  </i>
   <i type="logical" name="LFXCEPS"> F  </i>
   <i type="logical" name="LFXHEG"> F  </i>
   <i type="int" name="NATURALO">     2</i>
   <i type="logical" name="LHOLEGF"> F  </i>
   <i type="logical" name="L2ORDER"> F  </i>
   <i type="logical" name="LDMP1"> F  </i>
   <i type="logical" name="LMP2LT"> F  </i>
   <i type="logical" name="LSMP2LT"> F  </i>
   <i type="logical" name="LGWLF"> F  </i>
   <i name="ENCUTGW">     -1.60000002</i>
   <i name="ENCUTGWSOFT">     -1.60000002</i>
   <i name="ENCUTLF">     -1.00000000</i>
   <i type="logical" name="LESF_SPLINES"> F  </i>
   <i type="int" name="LMAXMP2">    -1</i>
   <i name="SCISSOR">      0.00000000</i>
   <i type="int" name="NOMEGA">     0</i>
   <i type="int" name="NOMEGAR">     0</i>
   <i type="int" name="NBANDSGW">    -1</i>
   <i type="int" name="NBANDSO">    -1</i>
   <i type="int" name="NBANDSV">    -1</i>
   <i type="int" name="NELMGW">     1</i>
   <i type="int" name="NELMHF">     1</i>
   <i type="int" name="DIM">     3</i>
   <i type="int" name="IESPILON">     4</i>
   <i type="int" name="ANTIRES">     0</i>
   <i name="OMEGAMAX">    -30.00000000</i>
   <i name="OMEGAMIN">    -30.00000000</i>
   <i name="OMEGATL">   -200.00000000</i>
   <i type="int" name="OMEGAGRID">     0</i>
   <i name="CSHIFT">     -0.10000000</i>
   <i type="logical" name="LSELFENERGY"> F  </i>
   <i type="logical" name="LSPECTRAL"> F  </i>
   <i type="logical" name="LSPECTRALGW"> F  </i>
   <i type="logical" name="LSINGLES"> F  </i>
   <i type="logical" name="LFERMIGW"> F  </i>
   <i type="logical" name="ODDONLYGW"> F  </i>
   <i type="logical" name="EVENONLYGW"> F  </i>
   <i type="int" name="NKREDLFX">     1</i>
   <i type="int" name="NKREDLFY">     1</i>
   <i type="int" name="NKREDLFZ">     1</i>
   <i type="int" name="MAXMEM">  2800</i>
   <i type="int" name="TELESCOPE">     0</i>
   <i type="int" name="NTAUPAR">    -1</i>
   <i type="int" name="NOMEGAPAR">    -1</i>
   <i name="DAMP_NEWTON">      0.80000001</i>
   <i name="LAMBDA">      1.00000000</i>
  </separator>
  <separator name="External order field" >
   <i name="OFIELD_KAPPA">      0.00000000</i>
   <v name="OFIELD_K">      0.00000000      0.00000000      0.00000000</v>
   <i name="OFIELD_Q6_NEAR">      0.00000000</i>
   <i name="OFIELD_Q6_FAR">      0.00000000</i>
   <i name="OFIELD_A">      0.00000000</i>
  </separator>
  <separator name="optional k-points parameters" >
   <i type="int" name="KPOINTS_OPT_MODE">     1</i>
   <i type="logical" name="LKPOINTS_OPT"> F  </i>
  </separator>
  <separator name="solvation model" >
   <i type="logical" name="LSOL"> F  </i>
  </separator>
 </parameters>
 <atominfo>
  <atoms>      25 </atoms>
  <types>       3 </types>
  <array name="atoms" >
   <dimension dim="1">ion</dimension>
   <field type="string">element</field>
   <field type="int">atomtype</field>
   <set>
    <rc><c>Ti</c><c>   1</c></rc>
    <rc><c>Ti</c><c>   1</c></rc>
    <rc><c>Ti</c><c>   1</c></rc>
    <rc><c>Ti</c><c>   1</c></rc>
    <rc><c>Ti</c><c>   1</c></rc>
    <rc><c>Ti</c><c>   1</c></rc>
    <rc><c>Ti</c><c>   1</c></rc>
    <rc><c>Ti</c><c>   1</c></rc>
    <rc><c>O </c><c>   2</c></rc>
    <rc><c>O </c><c>   2</c></rc>
    <rc><c>O </c><c>   2</c></rc>
    <rc><c>O </c><c>   2</c></rc>
    <rc><c>O </c><c>   2</c></rc>
    <rc><c>O </c><c>   2</c></rc>
    <rc><c>O </c><c>   2</c></rc>
    <rc><c>O </c><c>   2</c></rc>
    <rc><c>O </c><c>   2</c></rc>
    <rc><c>O </c><c>   2</c></rc>
    <rc><c>O </c><c>   2</c></rc>
    <rc><c>O </c><c>   2</c></rc>
    <rc><c>O </c><c>   2</c></rc>
    <rc><c>O </c><c>   2</c></rc>
    <rc><c>O </c><c>   2</c></rc>
    <rc><c>O </c><c>   2</c></rc>
    <rc><c>Li</c><c>   3</c></rc>
   </set>
  </array>
  <array name="atomtypes" >
   <dimension dim="1">type</dimension>
   <field type="int">atomspertype</field>
   <field type="string">element</field>
   <field>mass</field>
   <field>valence</field>
   <field type="string">pseudopotential</field>
   <set>
    <rc><c>   8</c><c>Ti</c><c>     47.88000000</c><c>     12.00000000</c><c>  PAW_PBE Ti_sv 26Sep2005               </c></rc>
    <rc><c>  16</c><c>O </c><c>     16.00000000</c><c>      6.00000000</c><c>  PAW_PBE O 08Apr2002                   </c></rc>
    <rc><c>   1</c><c>Li</c><c>      7.01000000</c><c>      3.00000000</c><c>  PAW_PBE Li_sv 10Sep2004               </c></rc>
   </set>
  </array>
 </atominfo>
 <structure name="initialpos" >
  <crystal>
   <varray name="basis" >
    <v>      12.30720000       0.00000000       0.00000000 </v>
    <v>       0.00000000       3.76690000       0.00000000 </v>
    <v>      -1.92832625       0.00000000       6.32895413 </v>
   </varray>
   <i name="volume">    293.41026081 </i>
   <varray name="rec_basis" >
    <v>       0.08125325      -0.00000000       0.02475650 </v>
    <v>       0.00000000       0.26547028      -0.00000000 </v>
    <v>       0.00000000       0.00000000       0.15800399 </v>
   </varray>
  </crystal>
  <varray name="positions" >
   <v>       0.09993000       0.00000000       0.71040000 </v>
   <v>       0.19529000       0.00000000       0.28376000 </v>
   <v>       0.59993000       0.50000000       0.71040000 </v>
   <v>       0.69529000       0.50000000       0.28376000 </v>
   <v>       0.90007000       0.00000000       0.28960000 </v>
   <v>       0.80471000       0.00000000       0.71624000 </v>
   <v>       0.40007000       0.50000000       0.28960000 </v>
   <v>       0.30471000       0.50000000       0.71624000 </v>
   <v>       0.05835000       0.00000000       0.36998000 </v>
   <v>       0.13281000       0.00000000       0.00471000 </v>
   <v>       0.55835000       0.50000000       0.36998000 </v>
   <v>       0.63281000       0.50000000       0.00471000 </v>
   <v>       0.94165000       0.00000000       0.63002000 </v>
   <v>       0.86719000       0.00000000       0.99529000 </v>
   <v>       0.44165000       0.50000000       0.63002000 </v>
   <v>       0.36719000       0.50000000       0.99529000 </v>
   <v>       0.13807000       0.50000000       0.70660000 </v>
   <v>       0.23651000       0.50000000       0.34750000 </v>
   <v>       0.63807000       0.00000000       0.70660000 </v>
   <v>       0.73651000       0.00000000       0.34750000 </v>
   <v>       0.86193000       0.50000000       0.29340000 </v>
   <v>       0.76349000       0.50000000       0.65250000 </v>
   <v>       0.36193000       0.00000000       0.29340000 </v>
   <v>       0.26349000       0.00000000       0.65250000 </v>
   <v>       0.45119000       0.88036000       0.63550000 </v>
  </varray>
  <varray name="velocities" >
   <v>      -0.00000298       0.00015509      -0.00014542 </v>
   <v>      -0.00007584      -0.00045284       0.00044306 </v>
   <v>       0.00026307      -0.00006084      -0.00019810 </v>
   <v>      -0.00001826      -0.00041823      -0.00024345 </v>
   <v>       0.00002363       0.00037238       0.00008629 </v>
   <v>       0.00024896      -0.00018796       0.00043250 </v>
   <v>      -0.00011344      -0.00034616      -0.00022041 </v>
   <v>       0.00017669      -0.00017041       0.00069444 </v>
   <v>      -0.00003960      -0.00051063      -0.00014592 </v>
   <v>       0.00019657       0.00029527       0.00086802 </v>
   <v>       0.00000693       0.00254084      -0.00096863 </v>
   <v>      -0.00118476       0.00037867       0.00066502 </v>
   <v>       0.00013804      -0.00054958      -0.00037701 </v>
   <v>       0.00021736      -0.00163224      -0.00054889 </v>
   <v>       0.00071436      -0.00033314       0.00048355 </v>
   <v>       0.00004797      -0.00003412       0.00077790 </v>
   <v>      -0.00029130       0.00069858      -0.00064360 </v>
   <v>      -0.00057070       0.00031497       0.00012213 </v>
   <v>      -0.00003751       0.00101605      -0.00069852 </v>
   <v>       0.00016483       0.00007742      -0.00067262 </v>
   <v>      -0.00041390       0.00068942      -0.00011380 </v>
   <v>       0.00006784      -0.00058376      -0.00001064 </v>
   <v>      -0.00034140       0.00016267      -0.00046273 </v>
   <v>      -0.00029872      -0.00030463      -0.00054562 </v>
   <v>       0.00027913       0.00249422      -0.00061388 </v>
  </varray>
 </structure>
 <calculation>
  <scstep>
   <time name="dav">    0.46    0.32</time>
   <time name="total">    0.47    0.33</time>
   <energy>
    <i name="alphaZ">    691.86374690 </i>
    <i name="ewald"> -12545.44361039 </i>
    <i name="hartreedc">  -6570.04975256 </i>
    <i name="XCdc">    951.80804338 </i>
    <i name="pawpsdc">  15741.07478202 </i>
    <i name="pawaedc"> -15628.57984533 </i>
    <i name="eentropy">     -0.05644369 </i>
    <i name="bandstr">  -1473.29371975 </i>
    <i name="atom">  19823.50682924 </i>
    <i name="e_fr_energy">    990.83002982 </i>
    <i name="e_wo_entrp">    990.88647351 </i>
    <i name="e_0_energy">    990.85825167 </i>
   </energy>
  </scstep>
  <scstep>
   <time name="dav">    0.86    0.60</time>
   <time name="total">    0.86    0.60</time>
   <energy>
    <i name="e_fr_energy">   -253.54986581 </i>
    <i name="e_wo_entrp">   -253.49344684 </i>
    <i name="e_0_energy">   -253.52165632 </i>
   </energy>
  </scstep>
  <scstep>
   <time name="dav">    0.45    0.32</time>
   <time name="total">    0.45    0.32</time>
   <energy>
    <i name="e_fr_energy">   -275.90381617 </i>
    <i name="e_wo_entrp">   -275.84739635 </i>
    <i name="e_0_energy">   -275.87560626 </i>
   </energy>
  </scstep>
  <scstep>
   <time name="dav">    1.73    1.21</time>
   <time name="total">    1.73    1.22</time>
   <energy>
    <i name="e_fr_energy">   -276.42695308 </i>
    <i name="e_wo_entrp">   -276.37052385 </i>
    <i name="e_0_energy">   -276.39873847 </i>
   </energy>
  </scstep>
  <scstep>
   <time name="dav">    0.46    0.34</time>
   <time name="total">    0.47    0.35</time>
   <energy>
    <i name="e_fr_energy">   -276.42714141 </i>
    <i name="e_wo_entrp">   -276.37071214 </i>
    <i name="e_0_energy">   -276.39892677 </i>
   </energy>
  </scstep>
  <scstep>
   <time name="dav">    1.71    1.19</time>
   <time name="total">    1.75    1.23</time>
   <energy>
    <i name="e_fr_energy">   -213.96054978 </i>
    <i name="e_wo_entrp">   -213.90382980 </i>
    <i name="e_0_energy">   -213.93218979 </i>
   </energy>
  </scstep>
  <scstep>
   <time name="dav">    1.58    1.06</time>
   <time name="total">    1.61    1.10</time>
   <energy>
    <i name="e_fr_energy">   -209.62537675 </i>
    <i name="e_wo_entrp">   -209.56895775 </i>
    <i name="e_0_energy">   -209.59716725 </i>
   </energy>
  </scstep>
  <scstep>
   <time name="dav">    1.70    1.18</time>
   <time name="total">    1.72    1.21</time>
   <energy>
    <i name="e_fr_energy">   -207.88659615 </i>
    <i name="e_wo_entrp">   -207.82946903 </i>
    <i name="e_0_energy">   -207.85803259 </i>
   </energy>
  </scstep>
  <scstep>
   <time name="dav">    1.57    1.05</time>
   <time name="total">    1.59    1.09</time>
   <energy>
    <i name="e_fr_energy">   -207.69948117 </i>
    <i name="e_wo_entrp">   -207.63711554 </i>
    <i name="e_0_energy">   -207.66829836 </i>
   </energy>
  </scstep>
  <scstep>
   <time name="dav">    1.70    1.17</time>
   <time name="total">    1.72    1.21</time>
   <energy>
    <i name="e_fr_energy">   -207.24077260 </i>
    <i name="e_wo_entrp">   -207.18435123 </i>
    <i name="e_0_energy">   -207.21256192 </i>
   </energy>
  </scstep>
  <scstep>
   <time name="dav">    1.59    1.06</time>
   <time name="total">    1.61    1.10</time>
   <energy>
    <i name="e_fr_energy">   -207.10119623 </i>
    <i name="e_wo_entrp">   -207.03732913 </i>
    <i name="e_0_energy">   -207.06926268 </i>
   </energy>
  </scstep>
  <scstep>
   <time name="dav">    1.70    1.18</time>
   <time name="total">    1.73    1.21</time>
   <energy>
    <i name="e_fr_energy">   -207.08789072 </i>
    <i name="e_wo_entrp">   -207.03098234 </i>
    <i name="e_0_energy">   -207.05943653 </i>
   </energy>
  </scstep>
  <scstep>
   <time name="dav">    1.69    1.17</time>
   <time name="total">    1.72    1.20</time>
   <energy>
    <i name="e_fr_energy">   -207.08460025 </i>
    <i name="e_wo_entrp">   -207.02584467 </i>
    <i name="e_0_energy">   -207.05522246 </i>
   </energy>
  </scstep>
  <scstep>
   <time name="dav">    1.57    1.05</time>
   <time name="total">    1.60    1.09</time>
   <energy>
    <i name="e_fr_energy">   -207.08666877 </i>
    <i name="e_wo_entrp">   -207.02896424 </i>
    <i name="e_0_energy">   -207.05781651 </i>
   </energy>
  </scstep>
  <scstep>
   <time name="dav">    1.69    1.17</time>
   <time name="total">    1.72    1.21</time>
   <energy>
    <i name="e_fr_energy">   -207.08619784 </i>
    <i name="e_wo_entrp">   -207.02793466 </i>
    <i name="e_0_energy">   -207.05706625 </i>
   </energy>
  </scstep>
  <scstep>
   <time name="dav">    1.59    1.07</time>
   <time name="total">    1.62    1.11</time>
   <energy>
    <i name="e_fr_energy">   -207.08603167 </i>
    <i name="e_wo_entrp">   -207.02816562 </i>
    <i name="e_0_energy">   -207.05709864 </i>
   </energy>
  </scstep>
  <scstep>
   <time name="dav">    1.70    1.18</time>
   <time name="total">    1.73    1.22</time>
   <energy>
    <i name="e_fr_energy">   -207.08589065 </i>
    <i name="e_wo_entrp">   -207.02779187 </i>
    <i name="e_0_energy">   -207.05684126 </i>
   </energy>
  </scstep>
  <scstep>
   <time name="dav">    1.58    1.06</time>
   <time name="total">    1.61    1.10</time>
   <energy>
    <i name="e_fr_energy">   -207.08592381 </i>
    <i name="e_wo_entrp">   -207.02783648 </i>
    <i name="e_0_energy">   -207.05688014 </i>
   </energy>
  </scstep>
  <scstep>
   <time name="dav">    1.69    1.17</time>
   <time name="total">    1.72    1.21</time>
   <energy>
    <i name="e_fr_energy">   -207.08594120 </i>
    <i name="e_wo_entrp">   -207.02782956 </i>
    <i name="e_0_energy">   -207.05688538 </i>
   </energy>
  </scstep>
  <scstep>
   <time name="dav">    1.60    1.07</time>
   <time name="total">    1.62    1.10</time>
   <energy>
    <i name="alphaZ">    691.86374690 </i>
    <i name="ewald"> -12545.44361039 </i>
    <i name="hartreedc">  -6556.70888316 </i>
    <i name="XCdc">    958.25331388 </i>
    <i name="pawpsdc">  22379.60690460 </i>
    <i name="pawaedc"> -22267.18386805 </i>
    <i name="eentropy">     -0.05806832 </i>
    <i name="bandstr">  -2690.92230626 </i>
    <i name="atom">  19823.50682924 </i>
    <i name="e_fr_energy">   -207.08594157 </i>
    <i name="e_wo_entrp">   -207.02787324 </i>
    <i name="e_0_energy">   -207.05690740 </i>
   </energy>
  </scstep>
  <structure>
   <crystal>
    <varray name="basis" >
     <v>      12.30720000       0.00000000       0.00000000 </v>
     <v>       0.00000000       3.76690000       0.00000000 </v>
     <v>      -1.92832625       0.00000000       6.32895413 </v>
    </varray>
    <i name="volume">    293.41026081 </i>
    <varray name="rec_basis" >
     <v>       0.08125325      -0.00000000       0.02475650 </v>
     <v>       0.00000000       0.26547028      -0.00000000 </v>
     <v>       0.00000000       0.00000000       0.15800399 </v>
    </varray>
   </crystal>
   <varray name="positions" >
    <v>       0.09993000       0.00000000       0.71040000 </v>
    <v>       0.19529000       0.00000000       0.28376000 </v>
    <v>       0.59993000       0.50000000       0.71040000 </v>
    <v>       0.69529000       0.50000000       0.28376000 </v>
    <v>       0.90007000       0.00000000       0.28960000 </v>
    <v>       0.80471000       0.00000000       0.71624000 </v>
    <v>       0.40007000       0.50000000       0.28960000 </v>
    <v>       0.30471000       0.50000000       0.71624000 </v>
    <v>       0.05835000       0.00000000       0.36998000 </v>
    <v>       0.13281000       0.00000000       0.00471000 </v>
    <v>       0.55835000       0.50000000       0.36998000 </v>
    <v>       0.63281000       0.50000000       0.00471000 </v>
    <v>       0.94165000       0.00000000       0.63002000 </v>
    <v>       0.86719000       0.00000000       0.99529000 </v>
    <v>       0.44165000       0.50000000       0.63002000 </v>
    <v>       0.36719000       0.50000000       0.99529000 </v>
    <v>       0.13807000       0.50000000       0.70660000 </v>
    <v>       0.23651000       0.50000000       0.34750000 </v>
    <v>       0.63807000       0.00000000       0.70660000 </v>
    <v>       0.73651000       0.00000000       0.34750000 </v>
    <v>       0.86193000       0.50000000       0.29340000 </v>
    <v>       0.76349000       0.50000000       0.65250000 </v>
    <v>       0.36193000       0.00000000       0.29340000 </v>
    <v>       0.26349000       0.00000000       0.65250000 </v>
    <v>       0.45119000       0.88036000       0.63550000 </v>
   </varray>
  </structure>
  <varray name="forces" >
   <v>      -6.39651399      -0.01501212       1.26241220 </v>
   <v>      -3.76687833       0.00638705      -3.53940286 </v>
   <v>      -2.22369761      -1.08694872       2.37255988 </v>
   <v>      -2.64002894       0.00289586      -2.92080536 </v>
   <v>       5.99871087       0.00299773      -1.28109987 </v>
   <v>       3.63903683      -0.01551343       3.14389461 </v>
   <v>       6.03759103      -0.21776967      -3.32249886 </v>
   <v>      -0.14583576      -0.49473138       3.86342139 </v>
   <v>       0.55559793      -0.00286165       0.30532848 </v>
   <v>       0.53891476       0.00377894      -0.73090814 </v>
   <v>      -0.08583739       0.05510361       0.43056401 </v>
   <v>       0.22153926       0.03256661      -1.55518520 </v>
   <v>      -0.33704433       0.00257003      -0.15122523 </v>
   <v>      -0.48209854       0.00050783       0.79688282 </v>
   <v>      -0.59634067      -6.33554597      -0.01676495 </v>
   <v>      -0.24226393       0.00483433       0.86802456 </v>
   <v>       6.01653037      -0.05060735      -0.31671621 </v>
   <v>       3.22719732       0.00155677       3.51026372 </v>
   <v>       4.53715469      -0.42091503      -0.54235460 </v>
   <v>       2.97549223      -0.00019128       3.46447871 </v>
   <v>      -5.88704876      -0.00048531       0.18978564 </v>
   <v>      -3.33659083      -0.01192412      -3.25896195 </v>
   <v>      -5.04652418      -0.34192441       1.26344286 </v>
   <v>      -1.94749991      -0.27144113      -3.33758448 </v>
   <v>      -0.61372529       9.11173608      -0.50042051 </v>
  </varray>
  <varray name="stress" >
   <v>      26.59954145      -0.34313483       5.47721795 </v>
   <v>      -0.34313445     108.51631977       3.33569566 </v>
   <v>       5.47721901       3.33569545     -59.12139788 </v>
  </varray>
  <energy>
   <i name="e_fr_energy">   -207.08594157 </i>
   <i name="e_wo_entrp">   -207.02787324 </i>
   <i name="e_0_energy">   -207.05690740 </i>
   <i name="kinetic">      0.94910813 </i>
   <i name="lattice kinetic">      0.00000000 </i>
   <i name="nosepot">      0.00000000 </i>
   <i name="nosekinetic">      0.00000000 </i>
   <i name="total">   -206.13683344 </i>
  </energy>
  <time name="totalsc">   29.35   20.57</time>
 </calculation>
 <calculation>
  <scstep>
   <time name="dav">    0.47    0.33</time>
   <time name="total">    0.49    0.34</time>
   <energy>
    <i name="alphaZ">    691.86374690 </i>
    <i name="ewald"> -12547.26896016 </i>
    <i name="hartreedc">  -6555.38445295 </i>
    <i name="XCdc">    958.25340285 </i>
    <i name="pawpsdc">  22379.40739824 </i>
    <i name="pawaedc"> -22266.99487351 </i>
    <i name="eentropy">     -0.05848812 </i>
    <i name="bandstr">  -2690.58822158 </i>
    <i name="atom">  19823.50682924 </i>
    <i name="e_fr_energy">   -207.26361909 </i>
    <i name="e_wo_entrp">   -207.20513096 </i>
    <i name="e_0_energy">   -207.23437502 </i>
   </energy>
  </scstep>
  <scstep>
   <time name="dav">    1.60    1.08</time>
   <time name="total">    1.63    1.11</time>
   <energy>
    <i name="e_fr_energy">   -207.27060262 </i>
    <i name="e_wo_entrp">   -207.21240018 </i>
    <i name="e_0_energy">   -207.24150140 </i>
   </energy>
  </scstep>
  <scstep>
   <time name="dav">    1.68    1.16</time>
   <time name="total">    1.71    1.20</time>
   <energy>
    <i name="e_fr_energy">   -207.27080680 </i>
    <i name="e_wo_entrp">   -207.21261087 </i>
    <i name="e_0_energy">   -207.24170884 </i>
   </energy>
  </scstep>
  <scstep>
   <time name="dav">    1.57    1.04</time>
   <time name="total">    1.61    1.08</time>
   <energy>
    <i name="e_fr_energy">   -207.27003862 </i>
    <i name="e_wo_entrp">   -207.21156699 </i>
    <i name="e_0_energy">   -207.24080281 </i>
   </energy>
  </scstep>
  <scstep>
   <time name="dav">    1.57    1.04</time>
   <time name="total">    1.59    1.08</time>
   <energy>
    <i name="e_fr_energy">   -207.26951236 </i>
    <i name="e_wo_entrp">   -207.21118857 </i>
    <i name="e_0_energy">   -207.24035046 </i>
   </energy>
  </scstep>
  <scstep>
   <time name="dav">    1.70    1.17</time>
   <time name="total">    1.73    1.21</time>
   <energy>
    <i name="e_fr_energy">   -207.26937815 </i>
    <i name="e_wo_entrp">   -207.21133020 </i>
    <i name="e_0_energy">   -207.24035418 </i>
   </energy>
  </scstep>
  <scstep>
   <time name="dav">    1.58    1.05</time>
   <time name="total">    1.61    1.09</time>
   <energy>
    <i name="e_fr_energy">   -207.26929809 </i>
    <i name="e_wo_entrp">   -207.21086410 </i>
    <i name="e_0_energy">   -207.24008110 </i>
   </energy>
  </scstep>
  <scstep>
   <time name="dav">    1.68    1.15</time>
   <time name="total">    1.71    1.19</time>
   <energy>
    <i name="e_fr_energy">   -207.26928110 </i>
    <i name="e_wo_entrp">   -207.21100539 </i>
    <i name="e_0_energy">   -207.24014325 </i>
   </energy>
  </scstep>
  <scstep>
   <time name="dav">    1.57    1.04</time>
   <time name="total">    1.59    1.07</time>
   <energy>
    <i name="alphaZ">    691.86374690 </i>
    <i name="ewald"> -12547.26896016 </i>
    <i name="hartreedc">  -6555.67910053 </i>
    <i name="XCdc">    958.25040660 </i>
    <i name="pawpsdc">  22384.74856387 </i>
    <i name="pawaedc"> -22272.24044646 </i>
    <i name="eentropy">     -0.05830634 </i>
    <i name="bandstr">  -2690.39201212 </i>
    <i name="atom">  19823.50682924 </i>
    <i name="e_fr_energy">   -207.26927900 </i>
    <i name="e_wo_entrp">   -207.21097266 </i>
    <i name="e_0_energy">   -207.24012583 </i>
   </energy>
  </scstep>
  <structure>
   <crystal>
    <varray name="basis" >
     <v>      12.30720000       0.00000000       0.00000000 </v>
     <v>       0.00000000       3.76690000       0.00000000 </v>
     <v>      -1.92832625       0.00000000       6.32895413 </v>
    </varray>
    <i name="volume">    293.41026081 </i>
    <varray name="rec_basis" >
     <v>       0.08125325      -0.00000000       0.02475650 </v>
     <v>       0.00000000       0.26547028      -0.00000000 </v>
     <v>       0.00000000       0.00000000       0.15800399 </v>
    </varray>
   </crystal>
   <varray name="positions" >
    <v>       0.09965755       0.99967287       0.71065534 </v>
    <v>       0.19505550       0.00029502       0.28439806 </v>
    <v>       0.60014556       0.50077250       0.71037921 </v>
    <v>       0.69535766       0.49967541       0.28349274 </v>
    <v>       0.90046201       0.00003445       0.28942543 </v>
    <v>       0.80479211       0.99922240       0.71649789 </v>
    <v>       0.40052294       0.49997542       0.28977439 </v>
    <v>       0.30442815       0.49989408       0.71634500 </v>
    <v>       0.05894819       0.99888636       0.37017093 </v>
    <v>       0.13284251       0.00183124       0.00480439 </v>
    <v>       0.55826460       0.50083278       0.36967356 </v>
    <v>       0.63239169       0.49943113       0.00398937 </v>
    <v>       0.94161779       0.99821022       0.62961080 </v>
    <v>       0.86723356       0.00076785       0.99580885 </v>
    <v>       0.44107352       0.49996506       0.62893465 </v>
    <v>       0.36693785       0.50076693       0.99401863 </v>
    <v>       0.13791342       0.49840529       0.70703950 </v>
    <v>       0.23651735       0.50027241       0.34727452 </v>
    <v>       0.63833126       0.00027575       0.70776376 </v>
    <v>       0.73647004       0.00124553       0.34762444 </v>
    <v>       0.86173855       0.50019819       0.29371005 </v>
    <v>       0.76302885       0.50129816       0.65130293 </v>
    <v>       0.36183563       0.99862928       0.29314601 </v>
    <v>       0.26324851       0.99978300       0.65201963 </v>
    <v>       0.45197829       0.88166308       0.63598174 </v>
   </varray>
  </structure>
  <varray name="forces" >
   <v>      -6.30049320      -0.00025554       1.32991937 </v>
   <v>      -3.71694101       0.01494933      -3.57965604 </v>
   <v>      -2.39360991      -1.07655510       2.26108817 </v>
   <v>      -2.64955808      -0.00644886      -2.98620230 </v>
   <v>       5.84009858       0.00695359      -1.25843357 </v>
   <v>       3.50406538      -0.02941802       3.02219831 </v>
   <v>       5.85349482      -0.20638765      -3.29622550 </v>
   <v>      -0.11797916      -0.47501891       3.71577922 </v>
   <v>       0.43130279       0.00875853       0.30208098 </v>
   <v>       0.52416364      -0.03802221      -0.73591709 </v>
   <v>      -0.01208433       0.04215084       0.44103487 </v>
   <v>       0.24417351       0.04594744      -1.49017956 </v>
   <v>      -0.38411607       0.03305498      -0.13896217 </v>
   <v>      -0.45791717      -0.00585693       0.75720009 </v>
   <v>      -0.43622102      -6.12381593       0.02866092 </v>
   <v>      -0.21435000      -0.01998383       1.01428263 </v>
   <v>       5.98818425      -0.00282910      -0.32452457 </v>
   <v>       3.25798416      -0.04293464       3.47743574 </v>
   <v>       4.58602799      -0.41606463      -0.49613805 </v>
   <v>       2.97159481      -0.03134815       3.47853431 </v>
   <v>      -5.74772853       0.01448625       0.20028339 </v>
   <v>      -3.21301289      -0.04461214      -3.14621404 </v>
   <v>      -4.95976043      -0.26821196       1.21849156 </v>
   <v>      -1.93272731      -0.27747974      -3.30445286 </v>
   <v>      -0.66145453       8.85629513      -0.49143178 </v>
  </varray>
  <varray name="stress" >
   <v>      27.48372981      -0.31095730       6.14326953 </v>
   <v>      -0.31095737     102.46852993       3.58934600 </v>
   <v>       6.14326911       3.58934616     -58.18372283 </v>
  </varray>
  <energy>
   <i name="e_fr_energy">   -207.26927900 </i>
   <i name="e_wo_entrp">   -207.21097266 </i>
   <i name="e_0_energy">   -207.24012583 </i>
   <i name="kinetic">      1.11163407 </i>
   <i name="lattice kinetic">      0.00000000 </i>
   <i name="nosepot">      0.00069200 </i>
   <i name="nosekinetic">      0.00004171 </i>
   <i name="total">   -206.15691122 </i>
  </energy>
  <time name="totalsc">   14.20    9.90</time>
 </calculation>
 <calculation>
  <scstep>
   <time name="dav">    0.50    0.34</time>
   <time name="total">    0.51    0.36</time>
   <energy>
    <i name="alphaZ">    691.86374690 </i>
    <i name="ewald"> -12548.80062421 </i>
    <i name="hartreedc">  -6555.28727195 </i>
    <i name="XCdc">    958.26269203 </i>
    <i name="pawpsdc">  22384.73857958 </i>
    <i name="pawaedc"> -22272.22791218 </i>
    <i name="eentropy">     -0.05891512 </i>
    <i name="bandstr">  -2689.71382066 </i>
    <i name="atom">  19823.50682924 </i>
    <i name="e_fr_energy">   -207.71669637 </i>
    <i name="e_wo_entrp">   -207.65778125 </i>
    <i name="e_0_energy">   -207.68723881 </i>
   </energy>
  </scstep>
  <scstep>
   <time name="dav">    1.72    1.18</time>
   <time name="total">    1.74    1.22</time>
   <energy>
    <i name="e_fr_energy">   -207.72658063 </i>
    <i name="e_wo_entrp">   -207.66831403 </i>
    <i name="e_0_energy">   -207.69744733 </i>
   </energy>
  </scstep>
  <scstep>
   <time name="dav">    1.58    1.05</time>
   <time name="total">    1.60    1.09</time>
   <energy>
    <i name="e_fr_energy">   -207.72737652 </i>
    <i name="e_wo_entrp">   -207.66862948 </i>
    <i name="e_0_energy">   -207.69800300 </i>
   </energy>
  </scstep>
  <scstep>
   <time name="dav">    1.70    1.18</time>
   <time name="total">    1.73    1.22</time>
   <energy>
    <i name="e_fr_energy">   -207.72536642 </i>
    <i name="e_wo_entrp">   -207.66640113 </i>
    <i name="e_0_energy">   -207.69588377 </i>
   </energy>
  </scstep>
  <scstep>
   <time name="dav">    1.59    1.06</time>
   <time name="total">    1.62    1.10</time>
   <energy>
    <i name="e_fr_energy">   -207.72487959 </i>
    <i name="e_wo_entrp">   -207.66675637 </i>
    <i name="e_0_energy">   -207.69581798 </i>
   </energy>
  </scstep>
  <scstep>
   <time name="dav">    1.60    1.07</time>
   <time name="total">    1.63    1.11</time>
   <energy>
    <i name="e_fr_energy">   -207.72468989 </i>
    <i name="e_wo_entrp">   -207.66567552 </i>
    <i name="e_0_energy">   -207.69518270 </i>
   </energy>
  </scstep>
  <scstep>
   <time name="dav">    1.71    1.17</time>
   <time name="total">    1.74    1.21</time>
   <energy>
    <i name="e_fr_energy">   -207.72458225 </i>
    <i name="e_wo_entrp">   -207.66603562 </i>
    <i name="e_0_energy">   -207.69530893 </i>
   </energy>
  </scstep>
  <scstep>
   <time name="dav">    1.60    1.07</time>
   <time name="total">    1.63    1.11</time>
   <energy>
    <i name="e_fr_energy">   -207.72455539 </i>
    <i name="e_wo_entrp">   -207.66591554 </i>
    <i name="e_0_energy">   -207.69523547 </i>
   </energy>
  </scstep>
  <scstep>
   <time name="dav">    1.72    1.18</time>
   <time name="total">    1.75    1.22</time>
   <energy>
    <i name="alphaZ">    691.86374690 </i>
    <i name="ewald"> -12548.80062421 </i>
    <i name="hartreedc">  -6556.02121000 </i>
    <i name="XCdc">    958.25243969 </i>
    <i name="pawpsdc">  22403.38365197 </i>
    <i name="pawaedc"> -22290.51766608 </i>
    <i name="eentropy">     -0.05863944 </i>
    <i name="bandstr">  -2689.33308184 </i>
    <i name="atom">  19823.50682924 </i>
    <i name="e_fr_energy">   -207.72455376 </i>
    <i name="e_wo_entrp">   -207.66591432 </i>
    <i name="e_0_energy">   -207.69523404 </i>
   </energy>
  </scstep>
  <structure>
   <crystal>
    <varray name="basis" >
     <v>      12.30720000       0.00000000       0.00000000 </v>
     <v>       0.00000000       3.76690000       0.00000000 </v>
     <v>      -1.92832625       0.00000000       6.32895413 </v>
    </varray>
    <i name="volume">    293.41026081 </i>
    <varray name="rec_basis" >
     <v>       0.08125325      -0.00000000       0.02475650 </v>
     <v>       0.00000000       0.26547028      -0.00000000 </v>
     <v>       0.00000000       0.00000000       0.15800399 </v>
    </varray>
   </crystal>
   <varray name="positions" >
    <v>       0.09928881       0.99934613       0.71095283 </v>
    <v>       0.19474248       0.00059079       0.28492172 </v>
    <v>       0.60033305       0.50148702       0.71043041 </v>
    <v>       0.69536701       0.49935089       0.28313063 </v>
    <v>       0.90094305       0.00006942       0.28921094 </v>
    <v>       0.80494658       0.99844398       0.71685178 </v>
    <v>       0.40105491       0.49993999       0.28984373 </v>
    <v>       0.30416311       0.49976300       0.71656819 </v>
    <v>       0.05957157       0.99777513       0.37039049 </v>
    <v>       0.13288969       0.00365520       0.00482861 </v>
    <v>       0.55818524       0.50167185       0.36940936 </v>
    <v>       0.63196342       0.49887021       0.00312735 </v>
    <v>       0.94156472       0.99642723       0.62918867 </v>
    <v>       0.86726595       0.00153437       0.99639943 </v>
    <v>       0.44047653       0.49895033       0.62785285 </v>
    <v>       0.36669051       0.50153025       0.99284482 </v>
    <v>       0.13804542       0.49681149       0.70744776 </v>
    <v>       0.23673617       0.50053792       0.34738042 </v>
    <v>       0.63880955       0.00048488       0.70887941 </v>
    <v>       0.73662756       0.00248529       0.34808012 </v>
    <v>       0.86126871       0.50039872       0.29403894 </v>
    <v>       0.76236371       0.50258839       0.64980709 </v>
    <v>       0.36151657       0.99721682       0.29300828 </v>
    <v>       0.26286322       0.99952193       0.65122488 </v>
    <v>       0.45267530       0.88620018       0.63635629 </v>
   </varray>
  </structure>
  <varray name="forces" >
   <v>      -6.11291048       0.01487303       1.39464386 </v>
   <v>      -3.61741838       0.02302294      -3.55241821 </v>
   <v>      -2.54382631      -1.03682142       2.13178607 </v>
   <v>      -2.63124938      -0.01667982      -2.99890373 </v>
   <v>       5.59303421       0.01091713      -1.22622972 </v>
   <v>       3.33301884      -0.03689299       2.83369805 </v>
   <v>       5.58861332      -0.18504173      -3.25049684 </v>
   <v>      -0.09905544      -0.44343670       3.50525023 </v>
   <v>       0.29824698       0.01950530       0.30062450 </v>
   <v>       0.49834753      -0.07935300      -0.75499650 </v>
   <v>       0.07046864       0.02913853       0.44492608 </v>
   <v>       0.26039079       0.05781735      -1.42275855 </v>
   <v>      -0.43159511       0.06139546      -0.12562951 </v>
   <v>      -0.42419672      -0.01182993       0.72384731 </v>
   <v>      -0.21964278      -5.39940872       0.09764732 </v>
   <v>      -0.17951749      -0.04304200       1.17270756 </v>
   <v>       5.85616153       0.04604987      -0.32580011 </v>
   <v>       3.22869225      -0.08886158       3.39381431 </v>
   <v>       4.55664635      -0.39878584      -0.44611322 </v>
   <v>       2.91545363      -0.06049675       3.45002248 </v>
   <v>      -5.50585512       0.02922993       0.19987243 </v>
   <v>      -3.03643881      -0.07894201      -2.98211135 </v>
   <v>      -4.77737113      -0.19386528       1.17606190 </v>
   <v>      -1.87251580      -0.27872140      -3.23800497 </v>
   <v>      -0.74642080       8.02199076      -0.50525844 </v>
  </varray>
  <varray name="stress" >
   <v>      30.67208907      -0.44694549       6.76354614 </v>
   <v>      -0.44694501      88.13419713       3.64070908 </v>
   <v>       6.76354543       3.64070916     -55.25929394 </v>
  </varray>
  <energy>
   <i name="e_fr_energy">   -207.72455376 </i>
   <i name="e_wo_entrp">   -207.66591432 </i>
   <i name="e_0_energy">   -207.69523404 </i>
   <i name="kinetic">      1.55297753 </i>
   <i name="lattice kinetic">      0.00000000 </i>
   <i name="nosepot">      0.00675891 </i>
   <i name="nosekinetic">      0.00251614 </i>
   <i name="total">   -206.16230118 </i>
  </energy>
  <time name="totalsc">   14.50   10.16</time>
 </calculation>
 <calculation>
  <scstep>
   <time name="dav">    0.49    0.33</time>
   <time name="total">    0.50    0.35</time>
   <energy>
    <i name="alphaZ">    691.86374690 </i>
    <i name="ewald"> -12549.71654681 </i>
    <i name="hartreedc">  -6556.74453034 </i>
    <i name="XCdc">    958.28061935 </i>
    <i name="pawpsdc">  22403.41213492 </i>
    <i name="pawaedc"> -22290.54143320 </i>
    <i name="eentropy">     -0.05950876 </i>
    <i name="bandstr">  -2688.37656262 </i>
    <i name="atom">  19823.50682924 </i>
    <i name="e_fr_energy">   -208.37525131 </i>
    <i name="e_wo_entrp">   -208.31574256 </i>
    <i name="e_0_energy">   -208.34549693 </i>
   </energy>
  </scstep>
  <scstep>
   <time name="dav">    1.73    1.19</time>
   <time name="total">    1.75    1.23</time>
   <energy>
    <i name="e_fr_energy">   -208.38913620 </i>
    <i name="e_wo_entrp">   -208.33077570 </i>
    <i name="e_0_energy">   -208.35995595 </i>
   </energy>
  </scstep>
  <scstep>
   <time name="dav">    1.58    1.06</time>
   <time name="total">    1.61    1.10</time>
   <energy>
    <i name="e_fr_energy">   -208.39036769 </i>
    <i name="e_wo_entrp">   -208.33076686 </i>
    <i name="e_0_energy">   -208.36056728 </i>
   </energy>
  </scstep>
  <scstep>
   <time name="dav">    1.71    1.18</time>
   <time name="total">    1.74    1.22</time>
   <energy>
    <i name="e_fr_energy">   -208.38699378 </i>
    <i name="e_wo_entrp">   -208.32731213 </i>
    <i name="e_0_energy">   -208.35715295 </i>
   </energy>
  </scstep>
  <scstep>
   <time name="dav">    1.61    1.07</time>
   <time name="total">    1.63    1.11</time>
   <energy>
    <i name="e_fr_energy">   -208.38665334 </i>
    <i name="e_wo_entrp">   -208.32850828 </i>
    <i name="e_0_energy">   -208.35758081 </i>
   </energy>
  </scstep>
  <scstep>
   <time name="dav">    1.73    1.18</time>
   <time name="total">    1.75    1.22</time>
   <energy>
    <i name="e_fr_energy">   -208.38605428 </i>
    <i name="e_wo_entrp">   -208.32662502 </i>
    <i name="e_0_energy">   -208.35633965 </i>
   </energy>
  </scstep>
  <scstep>
   <time name="dav">    1.61    1.07</time>
   <time name="total">    1.64    1.11</time>
   <energy>
    <i name="e_fr_energy">   -208.38591841 </i>
    <i name="e_wo_entrp">   -208.32685571 </i>
    <i name="e_0_energy">   -208.35638706 </i>
   </energy>
  </scstep>
  <scstep>
   <time name="dav">    1.60    1.06</time>
   <time name="total">    1.63    1.10</time>
   <energy>
    <i name="e_fr_energy">   -208.38588822 </i>
    <i name="e_wo_entrp">   -208.32678389 </i>
    <i name="e_0_energy">   -208.35633605 </i>
   </energy>
  </scstep>
  <scstep>
   <time name="dav">    1.70    1.15</time>
   <time name="total">    1.72    1.19</time>
   <energy>
    <i name="alphaZ">    691.86374690 </i>
    <i name="ewald"> -12549.71654681 </i>
    <i name="hartreedc">  -6557.95728549 </i>
    <i name="XCdc">    958.26727582 </i>
    <i name="pawpsdc">  22435.48889170 </i>
    <i name="pawaedc"> -22322.01893341 </i>
    <i name="eentropy">     -0.05913444 </i>
    <i name="bandstr">  -2687.76073131 </i>
    <i name="atom">  19823.50682924 </i>
    <i name="e_fr_energy">   -208.38588779 </i>
    <i name="e_wo_entrp">   -208.32675335 </i>
    <i name="e_0_energy">   -208.35632057 </i>
   </energy>
  </scstep>
  <structure>
   <crystal>
    <varray name="basis" >
     <v>      12.30720000       0.00000000       0.00000000 </v>
     <v>       0.00000000       3.76690000       0.00000000 </v>
     <v>      -1.92832625       0.00000000       6.32895413 </v>
    </varray>
    <i name="volume">    293.41026081 </i>
    <varray name="rec_basis" >
     <v>       0.08125325      -0.00000000       0.02475650 </v>
     <v>       0.00000000       0.26547028      -0.00000000 </v>
     <v>       0.00000000       0.00000000       0.15800399 </v>
    </varray>
   </crystal>
   <varray name="positions" >
    <v>       0.09882932       0.99902222       0.71129289 </v>
    <v>       0.19435453       0.00088624       0.28532959 </v>
    <v>       0.60048854       0.50214227       0.71054900 </v>
    <v>       0.69531842       0.49902749       0.28267541 </v>
    <v>       0.90150653       0.00010492       0.28895877 </v>
    <v>       0.80516868       0.99766823       0.71729360 </v>
    <v>       0.40165890       0.49989505       0.28980949 </v>
    <v>       0.30391542       0.49960918       0.71690139 </v>
    <v>       0.06021041       0.99667356       0.37063735 </v>
    <v>       0.13294970       0.00545614       0.00478098 </v>
    <v>       0.55811641       0.50251090       0.36918896 </v>
    <v>       0.63152915       0.49832190       0.00213512 </v>
    <v>       0.94148900       0.99466446       0.62875705 </v>
    <v>       0.86728821       0.00229473       0.99705539 </v>
    <v>       0.43987369       0.49707971       0.62678655 </v>
    <v>       0.36645329       0.50228246       0.99178919 </v>
    <v>       0.13845792       0.49523436       0.70782273 </v>
    <v>       0.23716199       0.50078786       0.34780816 </v>
    <v>       0.63950106       0.00062930       0.70994626 </v>
    <v>       0.73697798       0.00370840       0.34886095 </v>
    <v>       0.86053555       0.50060291       0.29438494 </v>
    <v>       0.76150965       0.50385874       0.64803655 </v>
    <v>       0.36098345       0.99578170       0.29298308 </v>
    <v>       0.26234047       0.99921803       0.65012708 </v>
    <v>       0.45326789       0.89363404       0.63661913 </v>
   </varray>
  </structure>
  <varray name="forces" >
   <v>      -5.83306317       0.02320214       1.44741742 </v>
   <v>      -3.45742739       0.03248542      -3.46616357 </v>
   <v>      -2.66863619      -0.97089592       1.98506999 </v>
   <v>      -2.58418814      -0.02587237      -2.95400456 </v>
   <v>       5.25676864       0.01465318      -1.17501044 </v>
   <v>       3.12796137      -0.04001070       2.58344351 </v>
   <v>       5.24421793      -0.16000920      -3.19422651 </v>
   <v>      -0.09014233      -0.40166670       3.23574307 </v>
   <v>       0.15239454       0.03077440       0.30177171 </v>
   <v>       0.46203265      -0.12153422      -0.78534545 </v>
   <v>       0.16105482       0.01560202       0.44545432 </v>
   <v>       0.26874136       0.06689469      -1.35214040 </v>
   <v>      -0.47715790       0.08991946      -0.11126079 </v>
   <v>      -0.38193703      -0.01947048       0.69262595 </v>
   <v>       0.04331539      -4.37246156       0.18940752 </v>
   <v>      -0.13609881      -0.06542515       1.34654052 </v>
   <v>       5.62064094       0.09493894      -0.32217115 </v>
   <v>       3.13809923      -0.13594652       3.26315919 </v>
   <v>       4.45273397      -0.36699090      -0.39395188 </v>
   <v>       2.80877979      -0.08890930       3.37851825 </v>
   <v>      -5.15892464       0.04670212       0.18873818 </v>
   <v>      -2.80889925      -0.11650388      -2.76783381 </v>
   <v>      -4.50211422      -0.11806015       1.13796959 </v>
   <v>      -1.76896505      -0.27687690      -3.13504992 </v>
   <v>      -0.86053088       6.85995360      -0.54156760 </v>
  </varray>
  <varray name="stress" >
   <v>      35.83694493      -0.71296582       7.30256868 </v>
   <v>      -0.71296522      67.17697047       3.48231445 </v>
   <v>       7.30256905       3.48231437     -50.63831868 </v>
  </varray>
  <energy>
   <i name="e_fr_energy">   -208.38588779 </i>
   <i name="e_wo_entrp">   -208.32675335 </i>
   <i name="e_0_energy">   -208.35632057 </i>
   <i name="kinetic">      2.16122696 </i>
   <i name="lattice kinetic">      0.00000000 </i>
   <i name="nosepot">      0.02896930 </i>
   <i name="nosekinetic">      0.02468550 </i>
   <i name="total">   -206.17100603 </i>
  </energy>
  <time name="totalsc">   14.51   10.14</time>
 </calculation>
 <calculation>
  <scstep>
   <time name="dav">    0.49    0.33</time>
   <time name="total">    0.50    0.35</time>
   <energy>
    <i name="alphaZ">    691.86374690 </i>
    <i name="ewald"> -12549.61159603 </i>
    <i name="hartreedc">  -6559.98935183 </i>
    <i name="XCdc">    958.31410335 </i>
    <i name="pawpsdc">  22435.59616643 </i>
    <i name="pawaedc"> -22322.12048509 </i>
    <i name="eentropy">     -0.06028715 </i>
    <i name="bandstr">  -2686.65331352 </i>
    <i name="atom">  19823.50682924 </i>
    <i name="e_fr_energy">   -209.15418771 </i>
    <i name="e_wo_entrp">   -209.09390055 </i>
    <i name="e_0_energy">   -209.12404413 </i>
   </energy>
  </scstep>
  <scstep>
   <time name="dav">    1.83    1.27</time>
   <time name="total">    1.85    1.31</time>
   <energy>
    <i name="e_fr_energy">   -209.17221357 </i>
    <i name="e_wo_entrp">   -209.11372457 </i>
    <i name="e_0_energy">   -209.14296907 </i>
   </energy>
  </scstep>
  <scstep>
   <time name="dav">    1.59    1.06</time>
   <time name="total">    1.61    1.10</time>
   <energy>
    <i name="e_fr_energy">   -209.17347161 </i>
    <i name="e_wo_entrp">   -209.11254445 </i>
    <i name="e_0_energy">   -209.14300803 </i>
   </energy>
  </scstep>
  <scstep>
   <time name="dav">    1.70    1.18</time>
   <time name="total">    1.73    1.22</time>
   <energy>
    <i name="e_fr_energy">   -209.16882188 </i>
    <i name="e_wo_entrp">   -209.10839700 </i>
    <i name="e_0_energy">   -209.13860944 </i>
   </energy>
  </scstep>
  <scstep>
   <time name="dav">    1.60    1.06</time>
   <time name="total">    1.62    1.10</time>
   <energy>
    <i name="e_fr_energy">   -209.16867068 </i>
    <i name="e_wo_entrp">   -209.11028109 </i>
    <i name="e_0_energy">   -209.13947589 </i>
   </energy>
  </scstep>
  <scstep>
   <time name="dav">    1.72    1.19</time>
   <time name="total">    1.76    1.23</time>
   <energy>
    <i name="e_fr_energy">   -209.16754865 </i>
    <i name="e_wo_entrp">   -209.10751949 </i>
    <i name="e_0_energy">   -209.13753407 </i>
   </energy>
  </scstep>
  <scstep>
   <time name="dav">    1.61    1.07</time>
   <time name="total">    1.64    1.11</time>
   <energy>
    <i name="e_fr_energy">   -209.16742650 </i>
    <i name="e_wo_entrp">   -209.10771034 </i>
    <i name="e_0_energy">   -209.13756842 </i>
   </energy>
  </scstep>
  <scstep>
   <time name="dav">    1.72    1.18</time>
   <time name="total">    1.74    1.22</time>
   <energy>
    <i name="e_fr_energy">   -209.16738750 </i>
    <i name="e_wo_entrp">   -209.10765042 </i>
    <i name="e_0_energy">   -209.13751896 </i>
   </energy>
  </scstep>
  <scstep>
   <time name="dav">    1.61    1.07</time>
   <time name="total">    1.63    1.11</time>
   <energy>
    <i name="alphaZ">    691.86374690 </i>
    <i name="ewald"> -12549.61159603 </i>
    <i name="hartreedc">  -6561.71027265 </i>
    <i name="XCdc">    958.30382271 </i>
    <i name="pawpsdc">  22480.65905988 </i>
    <i name="pawaedc"> -22366.34762291 </i>
    <i name="eentropy">     -0.05978719 </i>
    <i name="bandstr">  -2685.77156627 </i>
    <i name="atom">  19823.50682924 </i>
    <i name="e_fr_energy">   -209.16738631 </i>
    <i name="e_wo_entrp">   -209.10759913 </i>
    <i name="e_0_energy">   -209.13749272 </i>
   </energy>
  </scstep>
  <structure>
   <crystal>
    <varray name="basis" >
     <v>      12.30720000       0.00000000       0.00000000 </v>
     <v>       0.00000000       3.76690000       0.00000000 </v>
     <v>      -1.92832625       0.00000000       6.32895413 </v>
    </varray>
    <i name="volume">    293.41026081 </i>
    <varray name="rec_basis" >
     <v>       0.08125325      -0.00000000       0.02475650 </v>
     <v>       0.00000000       0.26547028      -0.00000000 </v>
     <v>       0.00000000       0.00000000       0.15800399 </v>
    </varray>
   </crystal>
   <varray name="positions" >
    <v>       0.09829057       0.99870537       0.71167253 </v>
    <v>       0.19390029       0.00117813       0.28562078 </v>
    <v>       0.60060774       0.50273432       0.71072811 </v>
    <v>       0.69521416       0.49870855       0.28213514 </v>
    <v>       0.90213938       0.00014058       0.28867404 </v>
    <v>       0.80545031       0.99690428       0.71780903 </v>
    <v>       0.40232135       0.49984245       0.28967508 </v>
    <v>       0.30368669       0.49943684       0.71733073 </v>
    <v>       0.06084965       0.99559664       0.37090830 </v>
    <v>       0.13301945       0.00720553       0.00466005 </v>
    <v>       0.55806321       0.50333740       0.36901459 </v>
    <v>       0.63109570       0.49779406       0.00103301 </v>
    <v>       0.94138981       0.99294758       0.62832266 </v>
    <v>       0.86730176       0.00303840       0.99776501 </v>
    <v>       0.43928656       0.49454894       0.62575727 </v>
    <v>       0.36623363       0.50301083       0.99087964 </v>
    <v>       0.13913119       0.49370059       0.70816055 </v>
    <v>       0.23778083       0.50101178       0.34853637 </v>
    <v>       0.64039056       0.00071293       0.71095679 </v>
    <v>       0.73750848       0.00489551       0.34994682 </v>
    <v>       0.85956780       0.50081087       0.29474257 </v>
    <v>       0.76049355       0.50508786       0.64603639 </v>
    <v>       0.36025810       0.99435360       0.29306579 </v>
    <v>       0.26169479       0.99887566       0.64875293 </v>
    <v>       0.45373619       0.90341875       0.63676054 </v>
   </varray>
  </structure>
  <varray name="forces" >
   <v>      -5.46349192       0.02705170       1.49453920 </v>
   <v>      -3.23891491       0.04428804      -3.32942207 </v>
   <v>      -2.75987599      -0.88422876       1.82596518 </v>
   <v>      -2.51070303      -0.03548668      -2.85334383 </v>
   <v>       4.83652154       0.01821449      -1.10887868 </v>
   <v>       2.89591452      -0.04010024       2.28002148 </v>
   <v>       4.81228213      -0.12943458      -3.13535956 </v>
   <v>      -0.09241765      -0.35057871       2.91705970 </v>
   <v>      -0.00453905       0.03883594       0.30588569 </v>
   <v>       0.41671779      -0.16180758      -0.82543628 </v>
   <v>       0.25654564       0.00280200       0.44279579 </v>
   <v>       0.27125860       0.07298360      -1.27635913 </v>
   <v>      -0.51771210       0.11641842      -0.09775903 </v>
   <v>      -0.33253623      -0.02761553       0.66483772 </v>
   <v>       0.32268970      -3.29306360       0.29608441 </v>
   <v>      -0.08432414      -0.08505708       1.53088908 </v>
   <v>       5.28402858       0.14622013      -0.31388090 </v>
   <v>       2.98831326      -0.18299817       3.08981053 </v>
   <v>       4.27434305      -0.32290614      -0.34030880 </v>
   <v>       2.65554606      -0.11563115       3.26251135 </v>
   <v>      -4.71256722       0.06313633       0.16405119 </v>
   <v>      -2.53704598      -0.15440560      -2.50962372 </v>
   <v>      -4.13943498      -0.04218726       1.10155716 </v>
   <v>      -1.63065006      -0.27422610      -2.99978172 </v>
   <v>      -0.98016663       5.60527122      -0.59022702 </v>
  </varray>
  <varray name="stress" >
   <v>      42.74827045      -0.97340603       7.76596218 </v>
   <v>      -0.97340618      42.02223594       3.16771857 </v>
   <v>       7.76596217       3.16771749     -44.56244506 </v>
  </varray>
  <energy>
   <i name="e_fr_energy">   -209.16738631 </i>
   <i name="e_wo_entrp">   -209.10759913 </i>
   <i name="e_0_energy">   -209.13749272 </i>
   <i name="kinetic">      2.78932157 </i>
   <i name="lattice kinetic">      0.00000000 </i>
   <i name="nosepot">      0.08214183 </i>
   <i name="nosekinetic">      0.11499799 </i>
   <i name="total">   -206.18092492 </i>
  </energy>
  <time name="totalsc">   14.60   10.23</time>
 </calculation>
 <calculation>
  <scstep>
   <time name="dav">    0.47    0.32</time>
   <time name="total">    0.48    0.33</time>
   <energy>
    <i name="alphaZ">    691.86374690 </i>
    <i name="ewald"> -12548.17763107 </i>
    <i name="hartreedc">  -6565.14383681 </i>
    <i name="XCdc">    958.36924760 </i>
    <i name="pawpsdc">  22480.85837626 </i>
    <i name="pawaedc"> -22366.53951961 </i>
    <i name="eentropy">     -0.06121609 </i>
    <i name="bandstr">  -2684.64369741 </i>
    <i name="atom">  19823.50682924 </i>
    <i name="e_fr_energy">   -209.96770097 </i>
    <i name="e_wo_entrp">   -209.90648488 </i>
    <i name="e_0_energy">   -209.93709293 </i>
   </energy>
  </scstep>
  <scstep>
   <time name="dav">    1.72    1.18</time>
   <time name="total">    1.74    1.22</time>
   <energy>
    <i name="e_fr_energy">   -209.98888159 </i>
    <i name="e_wo_entrp">   -209.93020375 </i>
    <i name="e_0_energy">   -209.95954267 </i>
   </energy>
  </scstep>
  <scstep>
   <time name="dav">    1.59    1.06</time>
   <time name="total">    1.62    1.10</time>
   <energy>
    <i name="e_fr_energy">   -209.98976411 </i>
    <i name="e_wo_entrp">   -209.92709572 </i>
    <i name="e_0_energy">   -209.95842992 </i>
   </energy>
  </scstep>
  <scstep>
   <time name="dav">    1.60    1.06</time>
   <time name="total">    1.63    1.10</time>
   <energy>
    <i name="e_fr_energy">   -209.98389129 </i>
    <i name="e_wo_entrp">   -209.92300403 </i>
    <i name="e_0_energy">   -209.95344766 </i>
   </energy>
  </scstep>
  <scstep>
   <time name="dav">    1.74    1.20</time>
   <time name="total">    1.77    1.24</time>
   <energy>
    <i name="e_fr_energy">   -209.98452414 </i>
    <i name="e_wo_entrp">   -209.92573229 </i>
    <i name="e_0_energy">   -209.95512821 </i>
   </energy>
  </scstep>
  <scstep>
   <time name="dav">    1.60    1.07</time>
   <time name="total">    1.63    1.11</time>
   <energy>
    <i name="e_fr_energy">   -209.98269123 </i>
    <i name="e_wo_entrp">   -209.92176914 </i>
    <i name="e_0_energy">   -209.95223019 </i>
   </energy>
  </scstep>
  <scstep>
   <time name="dav">    1.72    1.18</time>
   <time name="total">    1.75    1.22</time>
   <energy>
    <i name="e_fr_energy">   -209.98255359 </i>
    <i name="e_wo_entrp">   -209.92206198 </i>
    <i name="e_0_energy">   -209.95230779 </i>
   </energy>
  </scstep>
  <scstep>
   <time name="dav">    1.61    1.07</time>
   <time name="total">    1.63    1.11</time>
   <energy>
    <i name="e_fr_energy">   -209.98251219 </i>
    <i name="e_wo_entrp">   -209.92199046 </i>
    <i name="e_0_energy">   -209.95225133 </i>
   </energy>
  </scstep>
  <scstep>
   <time name="dav">    1.70    1.16</time>
   <time name="total">    1.72    1.19</time>
   <energy>
    <i name="alphaZ">    691.86374690 </i>
    <i name="ewald"> -12548.17763107 </i>
    <i name="hartreedc">  -6567.36168166 </i>
    <i name="XCdc">    958.36820338 </i>
    <i name="pawpsdc">  22537.12239271 </i>
    <i name="pawaedc"> -22421.76232227 </i>
    <i name="eentropy">     -0.06058159 </i>
    <i name="bandstr">  -2683.48146462 </i>
    <i name="atom">  19823.50682924 </i>
    <i name="e_fr_energy">   -209.98250897 </i>
    <i name="e_wo_entrp">   -209.92192738 </i>
    <i name="e_0_energy">   -209.95221817 </i>
   </energy>
  </scstep>
  <structure>
   <crystal>
    <varray name="basis" >
     <v>      12.30720000       0.00000000       0.00000000 </v>
     <v>       0.00000000       3.76690000       0.00000000 </v>
     <v>      -1.92832625       0.00000000       6.32895413 </v>
    </varray>
    <i name="volume">    293.41026081 </i>
    <varray name="rec_basis" >
     <v>       0.08125325      -0.00000000       0.02475650 </v>
     <v>       0.00000000       0.26547028      -0.00000000 </v>
     <v>       0.00000000       0.00000000       0.15800399 </v>
    </varray>
   </crystal>
   <varray name="positions" >
    <v>       0.09769200       0.99840194       0.71208432 </v>
    <v>       0.19339512       0.00146103       0.28579685 </v>
    <v>       0.60068697       0.50325717       0.71095739 </v>
    <v>       0.69505960       0.49839982       0.28152646 </v>
    <v>       0.90282025       0.00017570       0.28836560 </v>
    <v>       0.80577881       0.99616734       0.71837594 </v>
    <v>       0.40302036       0.49978494       0.28944790 </v>
    <v>       0.30347950       0.49925257       0.71783473 </v>
    <v>       0.06146866       0.99456692       0.37119746 </v>
    <v>       0.13309445       0.00886239       0.00446662 </v>
    <v>       0.55803086       0.50413255       0.36888828 </v>
    <v>       0.63067319       0.49729775       0.99985384 </v>
    <v>       0.94126809       0.99131460       0.62789578 </v>
    <v>       0.86730853       0.00374911       0.99850959 </v>
    <v>       0.43874175       0.49159787       0.62479509 </v>
    <v>       0.36604073       0.50369781       0.99014801 </v>
    <v>       0.14002802       0.49224838       0.70845612 </v>
    <v>       0.23856482       0.50119825       0.34952546 </v>
    <v>       0.64144643       0.00074252       0.71189682 </v>
    <v>       0.73819406       0.00601885       0.35129602 </v>
    <v>       0.85841301       0.50102065       0.29510184 </v>
    <v>       0.75935767       0.50624552       0.64387830 </v>
    <v>       0.35937770       0.99297343       0.29324830 </v>
    <v>       0.26095153       0.99850321       0.64715107 </v>
    <v>       0.45405930       0.91483751       0.63677065 </v>
   </varray>
  </structure>
  <varray name="forces" >
   <v>      -5.01430420       0.02250935       1.52966143 </v>
   <v>      -2.96994217       0.05762963      -3.14617671 </v>
   <v>      -2.80805327      -0.78482435       1.65886589 </v>
   <v>      -2.41597742      -0.04742759      -2.70447810 </v>
   <v>       4.34685221       0.02077031      -1.02889671 </v>
   <v>       2.64459136      -0.03513874       1.93927373 </v>
   <v>       4.32303838      -0.09689123      -3.07622252 </v>
   <v>      -0.09722537      -0.29222003       2.55571003 </v>
   <v>      -0.17130141       0.04671724       0.31222610 </v>
   <v>       0.36257116      -0.19843379      -0.86892918 </v>
   <v>       0.35283920      -0.00927837       0.43876810 </v>
   <v>       0.26500390       0.07739247      -1.19675364 </v>
   <v>      -0.55327505       0.13992903      -0.08460806 </v>
   <v>      -0.27761484      -0.03591336       0.63864449 </v>
   <v>       0.58361727      -2.36021783       0.40431807 </v>
   <v>      -0.02642703      -0.10245864       1.71799531 </v>
   <v>       4.85526230       0.19870055      -0.30156555 </v>
   <v>       2.78634273      -0.22791783       2.88150773 </v>
   <v>       4.03151682      -0.26922335      -0.28849993 </v>
   <v>       2.46473986      -0.13951156       3.10608233 </v>
   <v>      -4.18161187       0.08108721       0.12678922 </v>
   <v>      -2.23311495      -0.19313695      -2.21627973 </v>
   <v>      -3.70444367       0.03143398       1.06665257 </v>
   <v>      -1.46311384      -0.26908471      -2.83502533 </v>
   <v>      -1.08286542       4.40002336      -0.64209877 </v>
  </varray>
  <varray name="stress" >
   <v>      50.87273348      -1.03828621       8.16929358 </v>
   <v>      -1.03828635      15.05739424       2.81513599 </v>
   <v>       8.16929316       2.81513580     -37.32605911 </v>
  </varray>
  <energy>
   <i name="e_fr_energy">   -209.98250897 </i>
   <i name="e_wo_entrp">   -209.92192738 </i>
   <i name="e_0_energy">   -209.95221817 </i>
   <i name="kinetic">      3.26760395 </i>
   <i name="lattice kinetic">      0.00000000 </i>
   <i name="nosepot">      0.18155220 </i>
   <i name="nosekinetic">      0.34648335 </i>
   <i name="total">   -206.18686946 </i>
  </energy>
  <time name="totalsc">   14.51   10.12</time>
 </calculation>
 <calculation>
  <scstep>
   <time name="dav">    0.47    0.32</time>
   <time name="total">    0.49    0.34</time>
   <energy>
    <i name="alphaZ">    691.86374690 </i>
    <i name="ewald"> -12545.33508737 </i>
    <i name="hartreedc">  -6572.09252779 </i>
    <i name="XCdc">    958.45015684 </i>
    <i name="pawpsdc">  22537.39045705 </i>
    <i name="pawaedc"> -22422.02101928 </i>
    <i name="eentropy">     -0.06222521 </i>
    <i name="bandstr">  -2682.44391873 </i>
    <i name="atom">  19823.50682924 </i>
    <i name="e_fr_energy">   -210.74358834 </i>
    <i name="e_wo_entrp">   -210.68136313 </i>
    <i name="e_0_energy">   -210.71247573 </i>
   </energy>
  </scstep>
  <scstep>
   <time name="dav">    1.73    1.19</time>
   <time name="total">    1.76    1.23</time>
   <energy>
    <i name="e_fr_energy">   -210.76604291 </i>
    <i name="e_wo_entrp">   -210.70709991 </i>
    <i name="e_0_energy">   -210.73657141 </i>
   </energy>
  </scstep>
  <scstep>
   <time name="dav">    1.59    1.06</time>
   <time name="total">    1.62    1.10</time>
   <energy>
    <i name="e_fr_energy">   -210.76645658 </i>
    <i name="e_wo_entrp">   -210.70200458 </i>
    <i name="e_0_energy">   -210.73423058 </i>
   </energy>
  </scstep>
  <scstep>
   <time name="dav">    1.73    1.19</time>
   <time name="total">    1.75    1.23</time>
   <energy>
    <i name="e_fr_energy">   -210.75959561 </i>
    <i name="e_wo_entrp">   -210.69861198 </i>
    <i name="e_0_energy">   -210.72910380 </i>
   </energy>
  </scstep>
  <scstep>
   <time name="dav">    1.73    1.19</time>
   <time name="total">    1.76    1.23</time>
   <energy>
    <i name="e_fr_energy">   -210.75968973 </i>
    <i name="e_wo_entrp">   -210.69921449 </i>
    <i name="e_0_energy">   -210.72945211 </i>
   </energy>
  </scstep>
  <scstep>
   <time name="dav">    1.61    1.07</time>
   <time name="total">    1.64    1.11</time>
   <energy>
    <i name="e_fr_energy">   -210.75893603 </i>
    <i name="e_wo_entrp">   -210.69670146 </i>
    <i name="e_0_energy">   -210.72781875 </i>
   </energy>
  </scstep>
  <scstep>
   <time name="dav">    1.73    1.18</time>
   <time name="total">    1.76    1.23</time>
   <energy>
    <i name="e_fr_energy">   -210.75862870 </i>
    <i name="e_wo_entrp">   -210.69725877 </i>
    <i name="e_0_energy">   -210.72794373 </i>
   </energy>
  </scstep>
  <scstep>
   <time name="dav">    1.61    1.07</time>
   <time name="total">    1.64    1.11</time>
   <energy>
    <i name="e_fr_energy">   -210.75858203 </i>
    <i name="e_wo_entrp">   -210.69712753 </i>
    <i name="e_0_energy">   -210.72785478 </i>
   </energy>
  </scstep>
  <scstep>
   <time name="dav">    1.74    1.20</time>
   <time name="total">    1.77    1.23</time>
   <energy>
    <i name="alphaZ">    691.86374690 </i>
    <i name="ewald"> -12545.33508737 </i>
    <i name="hartreedc">  -6574.73271120 </i>
    <i name="XCdc">    958.46281805 </i>
    <i name="pawpsdc">  22601.60002505 </i>
    <i name="pawaedc"> -22485.03767033 </i>
    <i name="eentropy">     -0.06146613 </i>
    <i name="bandstr">  -2681.02506307 </i>
    <i name="atom">  19823.50682924 </i>
    <i name="e_fr_energy">   -210.75857884 </i>
    <i name="e_wo_entrp">   -210.69711271 </i>
    <i name="e_0_energy">   -210.72784578 </i>
   </energy>
  </scstep>
  <structure>
   <crystal>
    <varray name="basis" >
     <v>      12.30720000       0.00000000       0.00000000 </v>
     <v>       0.00000000       3.76690000       0.00000000 </v>
     <v>      -1.92832625       0.00000000       6.32895413 </v>
    </varray>
    <i name="volume">    293.41026081 </i>
    <varray name="rec_basis" >
     <v>       0.08125325      -0.00000000       0.02475650 </v>
     <v>       0.00000000       0.26547028      -0.00000000 </v>
     <v>       0.00000000       0.00000000       0.15800399 </v>
    </varray>
   </crystal>
   <varray name="positions" >
    <v>       0.09706063       0.99811951       0.71251626 </v>
    <v>       0.19286084       0.00172831       0.28586452 </v>
    <v>       0.60072453       0.50370507       0.71122277 </v>
    <v>       0.69486384       0.49810881       0.28087442 </v>
    <v>       0.90352034       0.00020953       0.28804572 </v>
    <v>       0.80613701       0.99547684       0.71896544 </v>
    <v>       0.40372716       0.49972612       0.28914091 </v>
    <v>       0.30329667       0.49906520       0.71838444 </v>
    <v>       0.06204347       0.99361187       0.37149647 </v>
    <v>       0.13316916       0.01037985       0.00420581 </v>
    <v>       0.55802367       0.50487408       0.36881072 </v>
    <v>       0.63027364       0.49684590       0.99864169 </v>
    <v>       0.94112689       0.98981026       0.62748912 </v>
    <v>       0.86731091       0.00440762       0.99926425 </v>
    <v>       0.43826614       0.48847474       0.62393326 </v>
    <v>       0.36588401       0.50432384       0.98962269 </v>
    <v>       0.14109179       0.49092207       0.70870455 </v>
[...]
    <v>       0.00000000       0.26547028      -0.00000000 </v>
    <v>       0.00000000       0.00000000       0.15800399 </v>
   </varray>
  </crystal>
  <varray name="positions" >
   <v>       0.09734373       0.01163434       0.69329277 </v>
   <v>       0.17489084       0.00244833       0.25737873 </v>
   <v>       0.61540810       0.52253627       0.70379809 </v>
   <v>       0.68069834       0.39465651       0.24907083 </v>
   <v>       0.89780104       0.04780739       0.30806605 </v>
   <v>       0.83177029       0.91740146       0.76833536 </v>
   <v>       0.40571061       0.56946670       0.27968119 </v>
   <v>       0.30315848       0.50131532       0.71971656 </v>
   <v>       0.05683206       0.04778949       0.38169308 </v>
   <v>       0.11347862       0.04652201       0.97374123 </v>
   <v>       0.56682353       0.53849772       0.39357003 </v>
   <v>       0.61289060       0.39466004       0.97160868 </v>
   <v>       0.94068116       0.92247891       0.61612302 </v>
   <v>       0.89787311       0.92268940       0.04188926 </v>
   <v>       0.43055282       0.57320840       0.60868323 </v>
   <v>       0.38076838       0.53555403       0.00371083 </v>
   <v>       0.16490744       0.54400898       0.75684470 </v>
   <v>       0.23447298       0.55762346       0.34721470 </v>
   <v>       0.67489778       0.95558879       0.81196034 </v>
   <v>       0.72957238       0.96702986       0.36783348 </v>
   <v>       0.82426341       0.48759057       0.22885363 </v>
   <v>       0.77167600       0.44127705       0.70572785 </v>
   <v>       0.33858531       0.03980638       0.26720021 </v>
   <v>       0.25311764       0.03969839       0.59944851 </v>
   <v>       0.42451570       0.07193100       0.60291458 </v>
  </varray>
 </structure>
 <varray name="forces" >
  <v>      -0.10179704      -0.02897704       0.80279040 </v>
  <v>      -0.19244016       0.13924719      -1.14881104 </v>
  <v>       1.06946742       0.64230621       0.49163510 </v>
  <v>      -1.44851144       0.65283824      -1.54981664 </v>
  <v>      -0.63076750      -0.77965502      -1.14391038 </v>
  <v>       0.97873864       0.23779868       0.80057062 </v>
  <v>       0.45398424      -0.03853843      -0.52522588 </v>
  <v>       0.44915172       0.16840935       0.28015051 </v>
  <v>      -0.49944576       0.75925816      -0.11638845 </v>
  <v>      -0.03759346      -0.14906493      -0.06618245 </v>
  <v>       0.54979385      -0.66059517      -0.53074270 </v>
  <v>      -0.95383384      -0.15524315       1.14957202 </v>
  <v>      -0.03107030       0.12314967       0.02164444 </v>
  <v>      -0.04365126       0.28598437      -0.47960009 </v>
  <v>       0.24010437      -0.28706589       0.39878632 </v>
  <v>      -0.31137945      -0.20884349      -0.02405655 </v>
  <v>      -0.87395948       0.18982145       0.01733470 </v>
  <v>       0.21110422      -0.70400575       0.56898344 </v>
  <v>      -0.04226433      -0.79217434      -1.12276550 </v>
  <v>       0.08840784       0.31227561       0.66296542 </v>
  <v>       0.90863511      -0.38511759       0.89602642 </v>
  <v>      -0.88360416       0.40523519      -0.45990818 </v>
  <v>       0.69072146       0.72724645      -0.15597790 </v>
  <v>       0.48629305       0.29943157       1.45675532 </v>
  <v>      -0.07608372      -0.75372134      -0.22382897 </v>
 </varray>
 <varray name="stress" >
  <v>      51.42325508      12.63733329     -15.39909499 </v>
  <v>      12.63733329    -126.13625464       9.64621587 </v>
  <v>     -15.39909499       9.64621587      13.81397306 </v>
 </varray>
 <energy>
  <i name="e_fr_energy">   -214.34373781 </i>
  <i name="e_wo_entrp">   -214.34373781 </i>
  <i name="e_0_energy">   -214.34373781 </i>
  <i name="kinetic">      0.88002392 </i>
  <i name="lattice kinetic">      0.00000000 </i>
  <i name="nosepot">      8.68940325 </i>
  <i name="nosekinetic">      0.00545464 </i>
  <i name="total">   -204.76885600 </i>
 </energy>
 <time name="totalsc">    0.07    0.05</time>
 <structure>
  <crystal>
   <varray name="basis" >
    <v>      12.30720000       0.00000000       0.00000000 </v>
    <v>       0.00000000       3.76690000       0.00000000 </v>
    <v>      -1.92832625       0.00000000       6.32895413 </v>
   </varray>
   <i name="volume">    293.41026081 </i>
   <varray name="rec_basis" >
    <v>       0.08125325      -0.00000000       0.02475650 </v>
    <v>       0.00000000       0.26547028      -0.00000000 </v>
    <v>       0.00000000       0.00000000       0.15800399 </v>
   </varray>
  </crystal>
  <varray name="positions" >
   <v>       0.09743040       0.01148037       0.69319448 </v>
   <v>       0.17496175       0.00348795       0.25706154 </v>
   <v>       0.61554476       0.52258359       0.70367160 </v>
   <v>       0.68063734       0.39438336       0.24844443 </v>
   <v>       0.89788685       0.04764586       0.30788735 </v>
   <v>       0.83207862       0.91666605       0.76833572 </v>
   <v>       0.40529012       0.57023501       0.27877139 </v>
   <v>       0.30346245       0.50210230       0.71984903 </v>
   <v>       0.05708388       0.04614553       0.38163944 </v>
   <v>       0.11323910       0.04558656       0.97374421 </v>
   <v>       0.56667858       0.53852564       0.39375402 </v>
   <v>       0.61270488       0.39463829       0.97228878 </v>
   <v>       0.94091008       0.92082402       0.61600322 </v>
   <v>       0.89809986       0.92310400       0.04199488 </v>
   <v>       0.43040736       0.57419515       0.60888428 </v>
   <v>       0.38068996       0.53456278       0.00369386 </v>
   <v>       0.16485748       0.54340030       0.75666306 </v>
   <v>       0.23399586       0.55826538       0.34815174 </v>
   <v>       0.67467690       0.95437163       0.81284481 </v>
   <v>       0.72918795       0.96760026       0.36841174 </v>
   <v>       0.82401320       0.48609060       0.22926195 </v>
   <v>       0.77178015       0.44154781       0.70678365 </v>
   <v>       0.33839932       0.04074542       0.26754183 </v>
   <v>       0.25297047       0.03979250       0.60046047 </v>
   <v>       0.42490251       0.07348995       0.60368392 </v>
  </varray>
 </structure>
 <varray name="forces" >
  <v>      -0.05628714      -0.05639097       0.79646273 </v>
  <v>      -0.23896088       0.12899838      -1.08331413 </v>
  <v>       1.07960984       0.61559170       0.46751309 </v>
  <v>      -1.58536780       0.68092696      -1.36292118 </v>
  <v>      -0.63396753      -0.84997773      -1.10282766 </v>
  <v>       0.94681946       0.25936738       0.75476362 </v>
  <v>       0.56795922      -0.04819610      -0.26512592 </v>
  <v>       0.36913119       0.15239212       0.23820289 </v>
  <v>      -0.56069300       0.77256030      -0.12188255 </v>
  <v>      -0.04696309      -0.14085974      -0.09428604 </v>
  <v>       0.50202632      -0.66580168      -0.57502023 </v>
  <v>      -0.96225564      -0.15737377       1.00576481 </v>
  <v>      -0.09509075       0.13242508      -0.00958336 </v>
  <v>      -0.05586964       0.26987333      -0.47340822 </v>
  <v>       0.27241782      -0.27405744       0.37592201 </v>
  <v>      -0.28725770      -0.18036042      -0.04951394 </v>
  <v>      -0.83931420       0.21157375       0.03597980 </v>
  <v>       0.23911288      -0.68889880       0.53302137 </v>
  <v>       0.00665359      -0.72061448      -1.13089398 </v>
  <v>       0.15279159       0.22806323       0.64313836 </v>
  <v>       1.02807286      -0.23351470       0.86454235 </v>
  <v>      -0.89205310       0.34993325      -0.40867377 </v>
  <v>       0.69539199       0.70520647      -0.16585775 </v>
  <v>       0.50679433       0.31565609       1.38543042 </v>
  <v>      -0.11270065      -0.80652220      -0.25743271 </v>
 </varray>
 <varray name="stress" >
  <v>      51.18664366      12.94322578     -15.00569313 </v>
  <v>      12.94322578    -125.86252244      10.09796028 </v>
  <v>     -15.00569313      10.09796028      16.13794095 </v>
 </varray>
 <energy>
  <i name="e_fr_energy">   -214.35651086 </i>
  <i name="e_wo_entrp">   -214.35651086 </i>
  <i name="e_0_energy">   -214.35651086 </i>
  <i name="kinetic">      0.90838913 </i>
  <i name="lattice kinetic">      0.00000000 </i>
  <i name="nosepot">      8.67312902 </i>
  <i name="nosekinetic">      0.00608757 </i>
  <i name="total">   -204.76890515 </i>
 </energy>
 <time name="totalsc">    0.07    0.05</time>
 <structure>
  <crystal>
   <varray name="basis" >
    <v>      12.30720000       0.00000000       0.00000000 </v>
    <v>       0.00000000       3.76690000       0.00000000 </v>
    <v>      -1.92832625       0.00000000       6.32895413 </v>
   </varray>
   <i name="volume">    293.41026081 </i>
   <varray name="rec_basis" >
    <v>       0.08125325      -0.00000000       0.02475650 </v>
    <v>       0.00000000       0.26547028      -0.00000000 </v>
    <v>       0.00000000       0.00000000       0.15800399 </v>
   </varray>
  </crystal>
  <varray name="positions" >
   <v>       0.09752092       0.01132197       0.69312078 </v>
   <v>       0.17502395       0.00454388       0.25670683 </v>
   <v>       0.61570275       0.52266442       0.70355891 </v>
   <v>       0.68054289       0.39414433       0.24776878 </v>
   <v>       0.89795748       0.04743719       0.30767176 </v>
   <v>       0.83240909       0.91593794       0.76836022 </v>
   <v>       0.40487385       0.57100766       0.27784491 </v>
   <v>       0.30377642       0.50290456       0.71999031 </v>
   <v>       0.05730854       0.04461097       0.38157366 </v>
   <v>       0.11299370       0.04462002       0.97373819 </v>
   <v>       0.56654841       0.53844675       0.39388463 </v>
   <v>       0.61248521       0.39459103       0.97307128 </v>
   <v>       0.94113625       0.91917549       0.61588143 </v>
   <v>       0.89831879       0.92356574       0.04205615 </v>
   <v>       0.43027962       0.57514674       0.60912313 </v>
   <v>       0.38059595       0.53353358       0.00367200 </v>
   <v>       0.16476630       0.54282015       0.75648323 </v>
   <v>       0.23353420       0.55880231       0.34914826 </v>
   <v>       0.67443738       0.95302760       0.81362903 </v>
   <v>       0.72881722       0.96821248       0.36905676 </v>
   <v>       0.82382429       0.48453955       0.22975670 </v>
   <v>       0.77183519       0.44187729       0.70780986 </v>
   <v>       0.33824338       0.04180634       0.26787066 </v>
   <v>       0.25286768       0.03993822       0.60161417 </v>
   <v>       0.42527133       0.07476695       0.60440397 </v>
  </varray>
 </structure>
 <varray name="forces" >
  <v>      -0.01367666      -0.08425661       0.78000159 </v>
  <v>      -0.28230639       0.11809820      -1.00164334 </v>
  <v>       1.07642976       0.57886076       0.43422592 </v>
  <v>      -1.70612758       0.70836962      -1.14242658 </v>
  <v>      -0.63126103      -0.91994789      -1.04720199 </v>
  <v>       0.90722608       0.28088314       0.68558692 </v>
  <v>       0.68585686      -0.05836909       0.00001691 </v>
  <v>       0.28223649       0.13780684       0.20259555 </v>
  <v>      -0.60815974       0.78406690      -0.12700397 </v>
  <v>      -0.05771420      -0.13111836      -0.11605929 </v>
  <v>       0.44617362      -0.66699129      -0.61186511 </v>
  <v>      -0.96397841      -0.15789335       0.83407208 </v>
  <v>      -0.15710709       0.14095673      -0.03887189 </v>
  <v>      -0.06454466       0.25149131      -0.45997332 </v>
  <v>       0.30690700      -0.26608872       0.35005901 </v>
  <v>      -0.25963237      -0.15190352      -0.07575486 </v>
  <v>      -0.78928043       0.23279955       0.05628658 </v>
  <v>       0.25838073      -0.66177218       0.48882666 </v>
  <v>       0.05155138      -0.63570339      -1.12505116 </v>
  <v>       0.21225205       0.14098830       0.61178196 </v>
  <v>       1.12956229      -0.07786074       0.82044300 </v>
  <v>      -0.88162500       0.28764670      -0.35006556 </v>
  <v>       0.68744022       0.67272188      -0.17180528 </v>
  <v>       0.51813298       0.32507515       1.29395302 </v>
  <v>      -0.14673590      -0.84785995      -0.29012683 </v>
 </varray>
 <varray name="stress" >
  <v>      50.84360884      13.15314041     -14.54024105 </v>
  <v>      13.15314041    -125.60299920      10.64733105 </v>
  <v>     -14.54024105      10.64733105      18.71297694 </v>
 </varray>
 <energy>
  <i name="e_fr_energy">   -214.37287539 </i>
  <i name="e_wo_entrp">   -214.37287539 </i>
  <i name="e_0_energy">   -214.37287539 </i>
  <i name="kinetic">      0.94136652 </i>
  <i name="lattice kinetic">      0.00000000 </i>
  <i name="nosepot">      8.65634472 </i>
  <i name="nosekinetic">      0.00618042 </i>
  <i name="total">   -204.76898373 </i>
 </energy>
 <time name="totalsc">    0.07    0.05</time>
 <structure>
  <crystal>
   <varray name="basis" >
    <v>      12.30720000       0.00000000       0.00000000 </v>
    <v>       0.00000000       3.76690000       0.00000000 </v>
    <v>      -1.92832625       0.00000000       6.32895413 </v>
   </varray>
   <i name="volume">    293.41026081 </i>
   <varray name="rec_basis" >
    <v>       0.08125325      -0.00000000       0.02475650 </v>
    <v>       0.00000000       0.26547028      -0.00000000 </v>
    <v>       0.00000000       0.00000000       0.15800399 </v>
   </varray>
  </crystal>
  <varray name="positions" >
   <v>       0.09761594       0.01115761       0.69307135 </v>
   <v>       0.17507704       0.00561576       0.25631687 </v>
   <v>       0.61588205       0.52277710       0.70345909 </v>
   <v>       0.68041379       0.39394121       0.24705045 </v>
   <v>       0.89801311       0.04717719       0.30742071 </v>
   <v>       0.83276093       0.91521830       0.76840687 </v>
   <v>       0.40446508       0.57178421       0.27690999 </v>
   <v>       0.30409891       0.50372153       0.72013936 </v>
   <v>       0.05750341       0.04318854       0.38149512 </v>
   <v>       0.11274148       0.04362360       0.97372100 </v>
   <v>       0.56642984       0.53825988       0.39395787 </v>
   <v>       0.61222861       0.39451794       0.97394073 </v>
   <v>       0.94135616       0.91753464       0.61575481 </v>
   <v>       0.89852965       0.92407212       0.04207395 </v>
   <v>       0.43017109       0.57606418       0.60939765 </v>
   <v>       0.38048718       0.53247059       0.00364268 </v>
   <v>       0.16463628       0.54227216       0.75630715 </v>
   <v>       0.23308839       0.55923770       0.35020062 </v>
   <v>       0.67418136       0.95156912       0.81431269 </v>
   <v>       0.72846274       0.96885294       0.36976621 </v>
   <v>       0.82370158       0.48296187       0.23033448 </v>
   <v>       0.77184210       0.44225603       0.70881190 </v>
   <v>       0.33811730       0.04298510       0.26818603 </v>
   <v>       0.25280887       0.04013755       0.60290221 </v>
   <v>       0.42561709       0.07574434       0.60506719 </v>
  </varray>
 </structure>
 <varray name="forces" >
  <v>       0.02559400      -0.11251187       0.75368719 </v>
  <v>      -0.32230920       0.10660229      -0.90466292 </v>
  <v>       1.05967985       0.53196294       0.39141978 </v>
  <v>      -1.80760766       0.73447501      -0.88965600 </v>
  <v>      -0.62284175      -0.98860106      -0.97767868 </v>
  <v>       0.85980090       0.30229933       0.59479286 </v>
  <v>       0.80604782      -0.06879995       0.26685372 </v>
  <v>       0.18991840       0.12463864       0.17311797 </v>
  <v>      -0.64148310       0.79400322      -0.13149573 </v>
  <v>      -0.06931544      -0.11971603      -0.13164278 </v>
  <v>       0.38437420      -0.66421943      -0.64076380 </v>
  <v>      -0.95864782      -0.15708140       0.63719275 </v>
  <v>      -0.21575599       0.14879707      -0.06573621 </v>
  <v>      -0.06957952       0.23111508      -0.44026428 </v>
  <v>       0.34295122      -0.26372825       0.32121948 </v>
  <v>      -0.22888470      -0.12374388      -0.10184063 </v>
  <v>      -0.72544955       0.25353610       0.07815559 </v>
  <v>       0.26895300      -0.62354297       0.43614108 </v>
  <v>       0.09181916      -0.53756419      -1.10567376 </v>
  <v>       0.26600807       0.05360325       0.56861750 </v>
  <v>       1.20914102       0.07857928       0.76428494 </v>
  <v>      -0.85188207       0.21890343      -0.28523780 </v>
  <v>       0.66704519       0.63011759      -0.17368657 </v>
  <v>       0.52025539       0.32778071       1.18431173 </v>
  <v>      -0.17783141      -0.87690491      -0.32145543 </v>
 </varray>
 <varray name="stress" >
  <v>      50.39092335      13.26551632     -14.01014826 </v>
  <v>      13.26551632    -125.37377135      11.29908405 </v>
  <v>     -14.01014826      11.29908405      21.50677729 </v>
 </varray>
 <energy>
  <i name="e_fr_energy">   -214.39163910 </i>
  <i name="e_wo_entrp">   -214.39163910 </i>
  <i name="e_0_energy">   -214.39163910 </i>
  <i name="kinetic">      0.97703128 </i>
  <i name="lattice kinetic">      0.00000000 </i>
  <i name="nosepot">      8.63986269 </i>
  <i name="nosekinetic">      0.00565534 </i>
  <i name="total">   -204.76908980 </i>
 </energy>
 <time name="totalsc">    0.06    0.04</time>
 <structure>
  <crystal>
   <varray name="basis" >
    <v>      12.30720000       0.00000000       0.00000000 </v>
    <v>       0.00000000       3.76690000       0.00000000 </v>
    <v>      -1.92832625       0.00000000       6.32895413 </v>
   </varray>
   <i name="volume">    293.41026081 </i>
   <varray name="rec_basis" >
    <v>       0.08125325      -0.00000000       0.02475650 </v>
    <v>       0.00000000       0.26547028      -0.00000000 </v>
    <v>       0.00000000       0.00000000       0.15800399 </v>
   </varray>
  </crystal>
  <varray name="positions" >
   <v>       0.09771599       0.01098577       0.69304560 </v>
   <v>       0.17512076       0.00670269       0.25589458 </v>
   <v>       0.61608231       0.52291933       0.70337091 </v>
   <v>       0.68024938       0.39377577       0.24629743 </v>
   <v>       0.89805409       0.04686181       0.30713622 </v>
   <v>       0.83313295       0.91450865       0.76847295 </v>
   <v>       0.40406735       0.57256380       0.27597548 </v>
   <v>       0.30442819       0.50455230       0.72029524 </v>
   <v>       0.05766643       0.04188141       0.38140332 </v>
   <v>       0.11248169       0.04259928       0.97369107 </v>
   <v>       0.56631955       0.53796459       0.39397043 </v>
   <v>       0.61193214       0.39441897       0.97487871 </v>
   <v>       0.94156638       0.91590344       0.61562079 </v>
   <v>       0.89873231       0.92462007       0.04204978 </v>
   <v>       0.43008330       0.57694720       0.60970530 </v>
   <v>       0.38036466       0.53137847       0.00360337 </v>
   <v>       0.16447060       0.54176017       0.75613701 </v>
   <v>       0.23265848       0.55957662       0.35130387 </v>
   <v>       0.67391105       0.95001153       0.81489648 </v>
   <v>       0.72812680       0.96950760       0.37053624 </v>
   <v>       0.82364875       0.48138311       0.23099042 </v>
   <v>       0.77180286       0.44267325       0.70979535 </v>
   <v>       0.33802033       0.04427542       0.26848753 </v>
   <v>       0.25279291       0.04039131       0.60431478 </v>
   <v>       0.42593488       0.07640843       0.60566596 </v>
  </varray>
 </structure>
 <varray name="forces" >
  <v>       0.06131578      -0.14075132       0.71769636 </v>
  <v>      -0.35906744       0.09432522      -0.79337599 </v>
  <v>       1.02913038       0.47486990       0.33907771 </v>
  <v>      -1.88684493       0.75847940      -0.60709139 </v>
  <v>      -0.60885341      -1.05480638      -0.89517956 </v>
  <v>       0.80444343       0.32353706       0.48455195 </v>
  <v>       0.92678485      -0.07933612       0.53185599 </v>
  <v>       0.09387004       0.11295694       0.14928272 </v>
  <v>      -0.660683