AIMD-MLFF-ON-THE-FLY                    
            1
    12.307200    0.000000    0.000000
     0.000000    3.766900    0.000000
    -1.928326    0.000000    6.328954
   Ti   O    Li
     8    16     1
Direct configuration=     1
   0.09993000  0.00000000  0.71040000
   0.19529000  0.00000000  0.28376000
   0.59993000  0.50000000  0.71040000
   0.69529000  0.50000000  0.28376000
   0.90007000  0.00000000  0.28960000
   0.80471000  0.00000000  0.71624000
   0.40007000  0.50000000  0.28960000
   0.30471000  0.50000000  0.71624000
   0.05835000  0.00000000  0.36998000
   0.13281000  0.00000000  0.00471000
   0.55835000  0.50000000  0.36998000
   0.63281000  0.50000000  0.00471000
   0.94165000  0.00000000  0.63002000
   0.86719000  0.00000000  0.99529000
   0.44165000  0.50000000  0.63002000
   0.36719000  0.50000000  0.99529000
   0.13807000  0.50000000  0.70660000
   0.23651000  0.50000000  0.34750000
   0.63807000  0.00000000  0.70660000
   0.73651000  0.00000000  0.34750000
   0.86193000  0.50000000  0.29340000
   0.76349000  0.50000000  0.65250000
   0.36193000  0.00000000  0.29340000
   0.26349000  0.00000000  0.65250000
   0.45119000  0.88036000  0.63550000
Direct configuration=     2
   0.09965755 -0.00032713  0.71065534
   0.19505550  0.00029502  0.28439806
   0.60014556  0.50077250  0.71037921
   0.69535766  0.49967541  0.28349274
   0.90046201  0.00003445  0.28942543
   0.80479211 -0.00077760  0.71649789
   0.40052294  0.49997542  0.28977439
   0.30442815  0.49989408  0.71634500
   0.05894819 -0.00111364  0.37017093
   0.13284251  0.00183124  0.00480439
   0.55826460  0.50083278  0.36967356
   0.63239169  0.49943113  0.00398937
   0.94161779 -0.00178978  0.62961080
   0.86723356  0.00076785  0.99580885
   0.44107352  0.49996506  0.62893465
   0.36693785  0.50076693  0.99401863
   0.13791342  0.49840529  0.70703950
   0.23651735  0.50027241  0.34727452
   0.63833126  0.00027575  0.70776376
   0.73647004  0.00124553  0.34762444
   0.86173855  0.50019819  0.29371005
   0.76302885  0.50129816  0.65130293
   0.36183563 -0.00137072  0.29314601
   0.26324851 -0.00021700  0.65201963
   0.45197829  0.88166308  0.63598174
Direct configuration=     3
   0.09928881 -0.00065387  0.71095283
   0.19474248  0.00059079  0.28492172
   0.60033305  0.50148702  0.71043041
   0.69536701  0.49935089  0.28313063
   0.90094305  0.00006942  0.28921094
   0.80494658 -0.00155602  0.71685178
   0.40105491  0.49993999  0.28984373
   0.30416311  0.49976300  0.71656819
   0.05957157 -0.00222487  0.37039049
   0.13288969  0.00365520  0.00482861
   0.55818524  0.50167185  0.36940936
   0.63196342  0.49887021  0.00312735
   0.94156472 -0.00357277  0.62918867
   0.86726595  0.00153437  0.99639943
   0.44047653  0.49895033  0.62785285
   0.36669051  0.50153025  0.99284482
   0.13804542  0.49681149  0.70744776
   0.23673617  0.50053792  0.34738042
   0.63880955  0.00048488  0.70887941
   0.73662756  0.00248529  0.34808012
   0.86126871  0.50039872  0.29403894
   0.76236371  0.50258839  0.64980709
   0.36151657 -0.00278318  0.29300828
   0.26286322 -0.00047807  0.65122488
   0.45267530  0.88620018  0.63635629
Direct configuration=     4
   0.09882932 -0.00097778  0.71129289
   0.19435453  0.00088624  0.28532959
   0.60048854  0.50214227  0.71054900
   0.69531842  0.49902749  0.28267541
   0.90150653  0.00010492  0.28895877
   0.80516868 -0.00233177  0.71729360
   0.40165890  0.49989505  0.28980949
   0.30391542  0.49960918  0.71690139
   0.06021041 -0.00332644  0.37063735
   0.13294970  0.00545614  0.00478098
   0.55811641  0.50251090  0.36918896
   0.63152915  0.49832190  0.00213512
   0.94148900 -0.00533554  0.62875705
   0.86728821  0.00229473  0.99705539
   0.43987369  0.49707971  0.62678655
   0.36645329  0.50228246  0.99178919
   0.13845792  0.49523436  0.70782273
   0.23716199  0.50078786  0.34780816
   0.63950106  0.00062930  0.70994626
   0.73697798  0.00370840  0.34886095
   0.86053555  0.50060291  0.29438494
   0.76150965  0.50385874  0.64803655
   0.36098345 -0.00421830  0.29298308
   0.26234047 -0.00078197  0.65012708
   0.45326789  0.89363404  0.63661913
Direct configuration=     5
   0.09829057 -0.00129463  0.71167253
   0.19390029  0.00117813  0.28562078
   0.60060774  0.50273432  0.71072811
   0.69521416  0.49870855  0.28213514
   0.90213938  0.00014058  0.28867404
   0.80545031 -0.00309572  0.71780903
   0.40232135  0.49984245  0.28967508
   0.30368669  0.49943684  0.71733073
   0.06084965 -0.00440336  0.37090830
   0.13301945  0.00720553  0.00466005
   0.55806321  0.50333740  0.36901459
   0.63109570  0.49779406  0.00103301
   0.94138981 -0.00705242  0.62832266
   0.86730176  0.00303840  0.99776501
   0.43928656  0.49454894  0.62575727
   0.36623363  0.50301083  0.99087964
   0.13913119  0.49370059  0.70816055
   0.23778083  0.50101178  0.34853637
   0.64039056  0.00071293  0.71095679
   0.73750848  0.00489551  0.34994682
   0.85956780  0.50081087  0.29474257
   0.76049355  0.50508786  0.64603639
   0.36025810 -0.00564640  0.29306579
   0.26169479 -0.00112434  0.64875293
   0.45373619  0.90341875  0.63676054
Direct configuration=     6
   0.09769200 -0.00159806  0.71208432
   0.19339512  0.00146103  0.28579685
   0.60068697  0.50325717  0.71095739
   0.69505960  0.49839982  0.28152646
   0.90282025  0.00017570  0.28836560
   0.80577881 -0.00383266  0.71837594
   0.40302036  0.49978494  0.28944790
   0.30347950  0.49925257  0.71783473
   0.06146866 -0.00543308  0.37119746
   0.13309445  0.00886239  0.00446662
   0.55803086  0.50413255  0.36888828
   0.63067319  0.49729775 -0.00014616
   0.94126809 -0.00868540  0.62789578
   0.86730853  0.00374911  0.99850959
   0.43874175  0.49159787  0.62479509
   0.36604073  0.50369781  0.99014801
   0.14002802  0.49224838  0.70845612
   0.23856482  0.50119825  0.34952546
   0.64144643  0.00074252  0.71189682
   0.73819406  0.00601885  0.35129602
   0.85841301  0.50102065  0.29510184
   0.75935767  0.50624552  0.64387830
   0.35937770 -0.00702657  0.29324830
   0.26095153 -0.00149679  0.64715107
   0.45405930  0.91483751  0.63677065
Direct configuration=     7
   0.09706063 -0.00188049  0.71251626
   0.19286084  0.00172831  0.28586452
   0.60072453  0.50370507  0.71122277
   0.69486384  0.49810881  0.28087442
   0.90352034  0.00020953  0.28804572
   0.80613701 -0.00452316  0.71896544
   0.40372716  0.49972612  0.28914091
   0.30329667  0.49906520  0.71838444
   0.06204347 -0.00638813  0.37149647
   0.13316916  0.01037985  0.00420581
   0.55802367  0.50487408  0.36881072
   0.63027364  0.49684590 -0.00135831
   0.94112689 -0.01018974  0.62748912
   0.86731091  0.00440762  0.99926425
   0.43826614  0.48847474  0.62393326
   0.36588401  0.50432384  0.98962269
   0.14109179  0.49092207  0.70870455
   0.23947107  0.50133715  0.35071531
   0.64261997  0.00072842  0.71274868
   0.73899634  0.00704691  0.35284306
   0.85713756  0.50122917  0.29544927
   0.75815840  0.50729733  0.64165746
   0.35839484 -0.00831146  0.29351717
   0.26014670 -0.00188655  0.64539297
   0.45422291  0.92706275  0.63664506
Direct configuration=     8
   0.09642708 -0.00213489  0.71295360
   0.19232280  0.00197356  0.28583677
   0.60072191  0.50407530  0.71150776
   0.69463905  0.49784285  0.28020903
   0.90420798  0.00024132  0.28772840
   0.80650538 -0.00514880  0.71954600
   0.40441063  0.49966979  0.28877201
   0.30314005  0.49888413  0.71894721
   0.06255152 -0.00724314  0.37179588
   0.13323782  0.01171612  0.00388760
   0.55804403  0.50554138  0.36877994
   0.62990854  0.49644972 -0.00255452
   0.94097113 -0.01152477  0.62711511
   0.86731150  0.00499607  1.00000174
   0.43788099  0.48540382  0.62320003
   0.36577094  0.50487188  0.98931987
   0.14225207  0.48976137  0.70890333
   0.24044622  0.50142139  0.35203087
   0.64385123  0.00068384  0.71349693
   0.73986742  0.00795144  0.35450554
   0.85581843  0.50143288  0.29577063
   0.75695840  0.50821314  0.63947783
   0.35737091 -0.00945724  0.29385366
   0.25932222 -0.00227882  0.64356450
   0.45422514  0.93928535  0.63639017
Direct configuration=     9
   0.09581993 -0.00235707  0.71338200
   0.19180477  0.00219193  0.28573190
   0.60068377  0.50437008  0.71179611
   0.69439850  0.49760705  0.27955947
   0.90485483  0.00027027  0.28742642
   0.80686556 -0.00569689  0.72008953
   0.40504359  0.49961879  0.28836136
   0.30300979  0.49871724  0.71949270
   0.06297668 -0.00798161  0.37208702
   0.13329560  0.01284479  0.00352528
   0.55809192  0.50612025  0.36879110
   0.62958619  0.49611560 -0.00369063
   0.94080676 -0.01266470  0.62678305
   0.86731281  0.00550227  1.00069809
   0.43759782  0.48256080  0.62261196
   0.36570530  0.50533135  0.98923849
   0.14343664  0.48879103  0.70905354
   0.24143587  0.50144827  0.35339474
   0.64508027  0.00062293  0.71413376
   0.74075808  0.00871444  0.35619858
   0.85452949  0.50162848  0.29605401
   0.75581472  0.50897414  0.63743171
   0.35636537 -0.01043418  0.29423648
   0.25851804 -0.00265983  0.64174979
   0.45407693  0.95084729  0.63602126
Direct configuration=    10
   0.09526045 -0.00254608  0.71379027
   0.19132472  0.00238181  0.28557040
   0.60061701  0.50459676  0.71207464
   0.69415398  0.49740323  0.27894853
   0.90544095  0.00029597  0.28714921
   0.80720357 -0.00616284  0.72057614
   0.40560773  0.49957514  0.28792779
   0.30290421  0.49857016  0.71999783
   0.06331187 -0.00859880  0.37236379
   0.13333928  0.01376006  0.00313290
   0.55816517  0.50660603  0.36883736
   0.62931002  0.49584426 -0.00473509
   0.94063941 -0.01360295  0.62649736
   0.86731686  0.00592263  1.00133729
   0.43741691  0.48005566  0.62217116
   0.36568662  0.50570043  0.98936093
   0.14458410  0.48801679  0.70915980
   0.24239438  0.50142000  0.35474074
   0.64625806  0.00055850  0.71466098
   0.74162681  0.00933223  0.35785066
   0.85332870  0.50181425  0.29629194
   0.75476915  0.50957685  0.63558339
   0.35542536 -0.01123083  0.29464536
   0.25776507 -0.00301947  0.64001609
   0.45379937  0.96129071  0.63555972
Direct configuration=    11
   0.09476055 -0.00270383  0.71417171
   0.19089298  0.00254441  0.28537151
   0.60052926  0.50476619  0.71233457
   0.69391443  0.49723040  0.27839018
   0.90595634  0.00031855  0.28690181
   0.80751110 -0.00654968  0.72099565
   0.40609481  0.49953978  0.28748612
   0.30282032  0.49844568  0.72044923
   0.06355871 -0.00910058  0.37262321
   0.13336749  0.01447428  0.00272305
   0.55826016  0.50700286  0.36891128
   0.62907888  0.49563122 -0.00567202
   0.94047345 -0.01435019  0.62625769
   0.86732501  0.00626132  1.00191192
   0.43732987  0.47793724  0.62186779
   0.36571114  0.50598488  0.98965894
   0.14565135  0.48742781  0.70922920
   0.24329051  0.50134222  0.35602213
   0.64735217  0.00050070  0.71508846
   0.74244467  0.00981339  0.35941222
   0.85225226  0.50199025  0.29648189
   0.75384446  0.51003099  0.63396434
   0.35458092 -0.01185260  0.29506397
   0.25708208 -0.00335191  0.63840606
   0.45341798  0.97036980  0.63502826
Direct configuration=    12
   0.09432386 -0.00283430  0.71452387
   0.19051286  0.00268261  0.28515096
   0.60042748  0.50489002  0.71257140
   0.69368538  0.49708525  0.27789013
   0.90639961  0.00033815  0.28668547
   0.80778512 -0.00686584  0.72134624
   0.40650507  0.49951262  0.28704626
   0.30275459  0.49834397  0.72084221
   0.06372493 -0.00950003  0.37286498
   0.13338038  0.01501093  0.00230538
   0.55837293  0.50732026  0.36900593
   0.62888850  0.49546882 -0.00649858
   0.94031193 -0.01492858  0.62606043
   0.86733806  0.00652724  1.00242225
   0.43732325  0.47620890  0.62168484
   0.36577312  0.50619478  0.99010003
   0.14661429  0.48700269  0.70926955
   0.24410769  0.50122195  0.35721247
   0.64834637  0.00045601  0.71543068
   0.74319577  0.01017403  0.36085641
   0.85131569  0.50215738  0.29662524
   0.75304681  0.51035408  0.63257801
   0.35384564 -0.01231653  0.29548117
   0.25647648 -0.00365564  0.63693870
   0.45295719  0.97803749  0.63444622
Direct configuration=    13
   0.09394816 -0.00294224  0.71484745
   0.19018283  0.00280023  0.28492040
   0.60031742  0.50497915  0.71278391
   0.69346950  0.49696335  0.27744799
   0.90677506  0.00035502  0.28649861
   0.80802620 -0.00712219  0.72163150
   0.40684423  0.49949304  0.28661380
   0.30270356  0.49826360  0.72117835
   0.06382133 -0.00981321  0.37309056
   0.13337903  0.01539779  0.00188670
   0.55849966  0.50757023  0.36911557
   0.62873305  0.49534855 -0.00722081
   0.94015660 -0.01536459  0.62590026
   0.86735634  0.00673131  1.00287335
   0.43738223  0.47484538  0.62160304
   0.36586619  0.50634185  0.99065287
   0.14746405  0.48671572  0.70928834
   0.24484080  0.50106604  0.35830148
   0.64923698  0.00042807  0.71570360
   0.74387447  0.01043314  0.36217430
   0.85051947  0.50231743  0.29672595
   0.75237099  0.51056669  0.63140949
   0.35322089 -0.01264481  0.29589057
   0.25594749 -0.00393201  0.63561537
   0.45243751  0.98436794  0.63382858
Direct configuration=    14
   0.09362545 -0.00304203  0.71513613
   0.18989610  0.00290117  0.28467701
   0.60019769  0.50505115  0.71297395
   0.69328020  0.49685923  0.27705594
   0.90709192  0.00037318  0.28633587
   0.80823299 -0.00732272  0.72185679
   0.40712296  0.49946688  0.28619031
   0.30266137  0.49820395  0.72145753
   0.06383604 -0.01006880  0.37327212
   0.13338145  0.01567365  0.00147568
   0.55862857  0.50779075  0.36920643
   0.62859495  0.49521903 -0.00787016
   0.94000668 -0.01565494  0.62578786
   0.86737175  0.00688130  1.00326539
   0.43749181  0.47382148  0.62161353
   0.36597382  0.50641753  0.99129996
   0.14821989  0.48654218  0.70928289
   0.24548905  0.50090699  0.35933270
   0.65006207  0.00042461  0.71591924
   0.74448209  0.01060302  0.36340932
   0.84986002  0.50248337  0.29678058
   0.75180488  0.51068880  0.63044565
   0.35270244 -0.01290660  0.29630090
   0.25549658 -0.00416310  0.63449170
   0.45184663  0.98948873  0.63316790
Direct configuration=    15
   0.09334919 -0.00313598  0.71539374
   0.18964738  0.00298923  0.28442682
   0.60007271  0.50511312  0.71314385
   0.69311528  0.49676919  0.27670799
   0.90735730  0.00039237  0.28619395
   0.80840883 -0.00747836  0.72203048
   0.40735012  0.49943463  0.28577664
   0.30262553  0.49816228  0.72168643
   0.06378452 -0.01027956  0.37341414
   0.13338749  0.01586048  0.00107266
   0.55875825  0.50798909  0.36927836
   0.62846835  0.49507891 -0.00846050
   0.93986351 -0.01582774  0.62571736
   0.86738633  0.00698856  1.00360906
   0.43763841  0.47309086  0.62170019
   0.36609350  0.50643558  0.99202095
   0.14888584  0.48646044  0.70926163
   0.24606002  0.50074841  0.36030335
   0.65082627  0.00044142  0.71609258
   0.74502353  0.01070011  0.36456252
   0.84932404  0.50265541  0.29679730
   0.75133721  0.51073803  0.62965989
   0.35228221 -0.01311652  0.29671359
   0.25511566 -0.00435641  0.63355002
   0.45119069  0.99355908  0.63245852
Direct configuration=    16
   0.09311279 -0.00322604  0.71562408
   0.18943114  0.00306753  0.28417364
   0.59994586  0.50517016  0.71329625
   0.69297222  0.49668999  0.27639804
   0.90757820  0.00041242  0.28606963
   0.80855737 -0.00759833  0.72216059
   0.40753412  0.49939671  0.28537248
   0.30259428  0.49813609  0.72187205
   0.06368044 -0.01045609  0.37352098
   0.13339730  0.01597659  0.00067734
   0.55888789  0.50817140  0.36933182
   0.62834834  0.49492735 -0.00900452
   0.93972807 -0.01590635  0.62568367
   0.86740192  0.00706272  1.00391408
   0.43781105  0.47260869  0.62184989
   0.36622312  0.50640741  0.99280001
   0.14946868  0.48645252  0.70923144
   0.24656226  0.50059273  0.36121395
   0.65153528  0.00047481  0.71623604
   0.74550515  0.01073841  0.36563802
   0.84889684  0.50283395  0.29678346
   0.75095614  0.51072869  0.62902619
   0.35195086 -0.01328632  0.29713233
   0.25479601 -0.00451862  0.63277075
   0.45047256  0.99673527  0.63169178
Direct configuration=    17
   0.09291017 -0.00331384  0.71583056
   0.18924215  0.00313855  0.28391966
   0.59981972  0.50522581  0.71343372
   0.69284855  0.49661892  0.27612048
   0.90776097  0.00043325  0.28596002
   0.80868214 -0.00769021  0.72225432
   0.40768237  0.49935347  0.28497706
   0.30256644  0.49812321  0.72202102
   0.06353547 -0.01060697  0.37359652
   0.13341127  0.01603665  0.00028920
   0.55901714  0.50834272  0.36936751
   0.62823101  0.49476389 -0.00951300
   0.93960118 -0.01590950  0.62568263
   0.86742010  0.00711162  1.00418876
   0.43800115  0.47233471  0.62205230
   0.36636088  0.50634217  0.99362503
   0.14997621  0.48650406  0.70919781
   0.24700403  0.50044148  0.36206662
   0.65219477  0.00052173  0.71635965
   0.74593359  0.01072942  0.36664116
   0.84856410  0.50301951  0.29674539
   0.75065049  0.51067195  0.62852091
   0.35169922 -0.01342507  0.29756246
   0.25452921 -0.00465532  0.63213475
   0.44969262  0.99915866  0.63085666
Direct configuration=    18
   0.09273598 -0.00340070  0.71601610
   0.18907570  0.00320424  0.28366600
   0.59969622  0.50528238  0.71355856
   0.69274210  0.49655374  0.27587042
   0.90791109  0.00045482  0.28586261
   0.80878634 -0.00776001  0.72231785
   0.40780125  0.49930514  0.28458945
   0.30254127  0.49812178  0.72213931
   0.06335943 -0.01073895  0.37364407
   0.13342997  0.01605219 -0.00009222
   0.55914598  0.50850713  0.36938614
   0.62811324  0.49458831 -0.00999476
   0.93948349 -0.01585184  0.62571097
   0.86744227  0.00714157  1.00443989
   0.43820209  0.47223427  0.62229940
   0.36650525  0.50624710  0.99448681
   0.15041628  0.48660385  0.70916511
   0.24739276  0.50029556  0.36286402
   0.65280978  0.00057978  0.71647141
   0.74631509  0.01068241  0.36757737
   0.84831274  0.50321262  0.29668850
   0.75041020  0.51057631  0.62812345
   0.35151907 -0.01353949  0.29801071
   0.25430769 -0.00477101  0.63162443
   0.44884928  1.00095175  0.62993979
Direct configuration=    19
   0.09258563 -0.00348772  0.71618309
   0.18892769  0.00326605  0.28341306
   0.59957682  0.50534133  0.71367270
   0.69265099  0.49649261  0.27564377
   0.90803315  0.00047713  0.28577534
   0.80887274 -0.00781249  0.72235639
   0.40789609  0.49925186  0.28420877
   0.30251837  0.49813027  0.72223209
   0.06316052 -0.01085732  0.37366634
   0.13345410  0.01603212 -0.00046725
   0.55927463  0.50866795  0.36938839
   0.62799257  0.49440053 -0.01045677
   0.93937562 -0.01574465  0.62576621
   0.86746969  0.00715759  1.00467294
   0.43840878  0.47227812  0.62258500
   0.36665490  0.50612785  0.99537837
   0.15079626  0.48674329  0.70913680
   0.24773481  0.50015539  0.36360875
   0.65338446  0.00064711  0.71657764
   0.74665529  0.01060474  0.36845166
   0.84813119  0.50341384  0.29661735
   0.75022654  0.51044816  0.62781620
   0.35140345 -0.01363445  0.29848515
   0.25412490 -0.00486917  0.63122420
   0.44793930  1.00221835  0.62892537
Direct configuration=    20
   0.09245524 -0.00357579  0.71633342
   0.18879454  0.00332513  0.28316079
   0.59946268  0.50540348  0.71377779
   0.69257370  0.49643402  0.27543714
   0.90813095  0.00050022  0.28569649
   0.80894373 -0.00785136  0.72237426
   0.40797133  0.49919367  0.28383437
   0.30249758  0.49814738  0.72230381
   0.06294566 -0.01096620  0.37366554
   0.13348450  0.01598329 -0.00083603
   0.55940351  0.50882788  0.36937484
   0.62786700  0.49420054 -0.01090448
   0.93927810 -0.01559652  0.62584652
   0.86750351  0.00716370  1.00489221
   0.43861729  0.47244172  0.62290422
   0.36680864  0.50598886  0.99629430
   0.15112284  0.48691585  0.70911564
   0.24803542  0.50002108  0.36430305
   0.65392204  0.00072235  0.71668343
   0.74695906  0.01050225  0.36926838
   0.84800944  0.50362372  0.29653584
   0.75009199  0.51029221  0.62758432
   0.35134681 -0.01371333  0.29899528
   0.25397530 -0.00495248  0.63092042
   0.44695802  1.00304566  0.62779485
Direct configuration=    21
   0.09234154 -0.00366565  0.71646861
   0.18867314  0.00338231  0.28290885
   0.59935474  0.50546922  0.71387510
   0.69250898  0.49637671  0.27524777
   0.90820762  0.00052413  0.28562468
   0.80900135 -0.00787956  0.72237508
   0.40803065  0.49913049  0.28346583
   0.30247891  0.49817202  0.72235821
   0.06272067 -0.01106881  0.37364343
   0.13352208  0.01591098 -0.00119853
   0.55953321  0.50898916  0.36934599
   0.62773488  0.49398835 -0.01134206
   0.93919143 -0.01541398  0.62595056
   0.86754485  0.00716314  1.00510101
   0.43882447  0.47270445  0.62325308
   0.36696541  0.50583363  0.99723040
   0.15140202  0.48711662  0.70910385
   0.24829881  0.49989256  0.36494865
   0.65442489  0.00080446  0.71679283
   0.74723062  0.01037958  0.37003114
   0.84793890  0.50384280  0.29644731
   0.75000013  0.51011191  0.62741536
   0.35134493 -0.01377835  0.29955216
   0.25385438 -0.00502290  0.63070132
   0.44589934  1.00350686  0.62652654
Direct configuration=    22
   0.09224178 -0.00375797  0.71658982
   0.18856079  0.00343825  0.28265672
   0.59925379  0.50553868  0.71396569
   0.69245587  0.49631960  0.27507344
   0.90826570  0.00054894  0.28555882
   0.80904728 -0.00789941  0.72236181
   0.40807715  0.49906218  0.28310304
   0.30246251  0.49820326  0.72239847
   0.06249056 -0.01116768  0.37360142
   0.13356783  0.01581921 -0.00155457
   0.55966450  0.50915371  0.36930230
   0.62759479  0.49376395 -0.01177271
   0.93911605 -0.01520192  0.62607737
   0.86759477  0.00715854  1.00530191
   0.43902774  0.47304867  0.62362816
   0.36712423  0.50566495  0.99818323
   0.15163911  0.48734194  0.70910327
   0.24852828  0.49976959  0.36554670
   0.65489456  0.00089271  0.71690918
   0.74747359  0.01024043  0.37074287
   0.84791223  0.50407163  0.29635466
   0.74994545  0.50990977  0.62729883
   0.35139496 -0.01383082  0.30016874
   0.25375852 -0.00508187  0.63055667
   0.44475567  1.00366386  0.62509508
Direct configuration=    23
   0.09215643 -0.00384145  0.71671033
   0.18846348  0.00349387  0.28242468
   0.59916263  0.50559853  0.71404285
   0.69239725  0.49626409  0.27492262
   0.90830808  0.00057066  0.28549782
   0.80909728 -0.00792137  0.72233500
   0.40810937  0.49900696  0.28274082
   0.30245549  0.49823852  0.72244606
   0.06228282 -0.01124234  0.37359719
   0.13359392  0.01569924 -0.00188912
   0.55980267  0.50928634  0.36929017
   0.62748111  0.49358377 -0.01212208
   0.93904625 -0.01499501  0.62619090
   0.86765086  0.00714688  1.00549528
   0.43922936  0.47347302  0.62399617
   0.36728373  0.50549972  0.99907771
   0.15181216  0.48758292  0.70910640
   0.24873111  0.49960078  0.36608926
   0.65528149  0.00099091  0.71702372
   0.74768905  0.01010307  0.37138322
   0.84790998  0.50428806  0.29624676
   0.74991218  0.50969784  0.62720304
   0.35146544 -0.01381213  0.30075067
   0.25367109 -0.00515277  0.63034953
   0.44367592  1.00351171  0.62376597
Direct configuration=    24
   0.09208577 -0.00392797  0.71681488
   0.18837361  0.00354970  0.28220684
   0.59908273  0.50565206  0.71411821
   0.69234992  0.49620556  0.27479123
   0.90832911  0.00058941  0.28543843
   0.80913711 -0.00794344  0.72229332
   0.40812603  0.49894449  0.28237301
   0.30244764  0.49827417  0.72248773
   0.06208351 -0.01132465  0.37361864
   0.13362189  0.01554014 -0.00219734
   0.55996602  0.50943220  0.36929196
   0.62737996  0.49344681 -0.01242205
   0.93899479 -0.01476668  0.62631651
   0.86772101  0.00710586  1.00567471
   0.43942039  0.47399718  0.62435143
   0.36744033  0.50532825  0.99995617
   0.15194491  0.48784751  0.70910902
   0.24890915  0.49943105  0.36660492
   0.65562412  0.00111229  0.71711820
   0.74787940  0.00998330  0.37195582
   0.84794018  0.50449634  0.29612171
   0.74990425  0.50947118  0.62716066
   0.35153827 -0.01375073  0.30130918
   0.25358160 -0.00520226  0.63013269
   0.44263989  1.00305414  0.62256029
Direct configuration=    25
   0.09202766 -0.00401792  0.71690451
   0.18828935  0.00360602  0.28200133
   0.59901379  0.50570051  0.71419239
   0.69231362  0.49614372  0.27467744
   0.90833101  0.00060579  0.28538038
   0.80916778 -0.00796637  0.72223902
   0.40812957  0.49887484  0.28200093
   0.30243941  0.49831039  0.72252498
   0.06189533 -0.01141420  0.37366111
   0.13365323  0.01534608 -0.00247895
   0.56015182  0.50959099  0.36930833
   0.62728784  0.49334647 -0.01268144
   0.93896072 -0.01451819  0.62645645
   0.86780477  0.00704048  1.00584082
   0.43959978  0.47460603  0.62469355
   0.36759300  0.50515112  1.00081363
   0.15204294  0.48813335  0.70911298
   0.24906632  0.49926004  0.36709547
   0.65592739  0.00125317  0.71719721
   0.74804703  0.00987848  0.37246450
   0.84799755  0.50469918  0.29598150
   0.74991880  0.50923139  0.62716410
   0.35161061 -0.01365193  0.30184837
   0.25348712 -0.00523268  0.62990761
   0.44164256  1.00234279  0.62146572
Direct configuration=    26
   0.09198033 -0.00411170  0.71698002
   0.18820915  0.00366308  0.28180667
   0.59895559  0.50574490  0.71426599
   0.69228815  0.49607825  0.27457974
   0.90831564  0.00062031  0.28532344
   0.80919014 -0.00799083  0.72217390
   0.40812205  0.49879805  0.28162582
   0.30243111  0.49834733  0.72255885
   0.06172032 -0.01151077  0.37372052
   0.13368916  0.01512024 -0.00273362
   0.56035755  0.50976271  0.36933998
   0.62720182  0.49327750 -0.01290747
   0.93894305 -0.01425019  0.62661275
   0.86790197  0.00695464  1.00599395
   0.43976669  0.47528660  0.62502211
   0.36774081  0.50496875  1.00164587
   0.15211131  0.48843871  0.70911979
   0.24920605  0.49908753  0.36756250
   0.65619548  0.00141073  0.71726464
   0.74819424  0.00978643  0.37291280
   0.84807748  0.50489886  0.29582760
   0.74995343  0.50897968  0.62720706
   0.35167988 -0.01352012  0.30237134
   0.25338514 -0.00524601  0.62967570
   0.44067996  1.00142162  0.62047239
Direct configuration=    27
   0.09194225 -0.00420968  0.71704208
   0.18813166  0.00372118  0.28162164
   0.59890798  0.50578607  0.71433959
   0.69227344  0.49600874  0.27449682
   0.90828454  0.00063339  0.28526734
   0.80920493 -0.00801740  0.72209949
   0.40810521  0.49871410  0.28124883
   0.30242292  0.49838513  0.72259009
   0.06155995 -0.01161429  0.37379326
   0.13373070  0.01486498 -0.00296103
   0.56058081  0.50994759  0.36938762
   0.62711942  0.49323581 -0.01310613
   0.93894080 -0.01396281  0.62678718
   0.86801273  0.00685142  1.00613431
   0.43992041  0.47602773  0.62533660
   0.36788290  0.50478144  1.00244919
   0.15215460  0.48876239  0.70913059
   0.24933144  0.49891347  0.36800733
   0.65643193  0.00158282  0.71732385
   0.74832328  0.00970535  0.37330396
   0.84817592  0.50509735  0.29566096
   0.75000616  0.50871691  0.62728424
   0.35174375 -0.01335901  0.30288046
   0.25327344 -0.00524388  0.62943836
   0.43974919  1.00032760  0.61957278
Direct configuration=    28
   0.09191212 -0.00431224  0.71709123
   0.18805565  0.00378064  0.28144523
   0.59887090  0.50582474  0.71441375
   0.69226950  0.49593473  0.27442758
   0.90823900  0.00064541  0.28521182
   0.80921276 -0.00804668  0.72201702
   0.40808048  0.49862291  0.28087105
   0.30241492  0.49842392  0.72261916
   0.06141518 -0.01172487  0.37387609
   0.13377875  0.01458200 -0.00316091
   0.56081935  0.51014612  0.36945201
   0.62703851  0.49321813 -0.01328238
   0.93895298 -0.01365572  0.62698134
   0.86813744  0.00673319  1.00626199
   0.44006037  0.47681988  0.62563642
   0.36801849  0.50458939  1.00322036
   0.15217696  0.48910357  0.70914635
   0.24944525  0.49873796  0.36843111
   0.65663976  0.00176783  0.71737780
   0.74843635  0.00963374  0.37364100
   0.84828927  0.50529637  0.29548214
   0.75007532  0.50844372  0.62739112
   0.35180014 -0.01317176  0.30337753
   0.25315009 -0.00522764  0.62919699
   0.43884805  0.99909181  0.61876102
Direct configuration=    29
   0.09188886 -0.00441980  0.71712794
   0.18798007  0.00384179  0.28127662
   0.59884434  0.50586157  0.71448902
   0.69227642  0.49585570  0.27437103
   0.90818010  0.00065667  0.28515657
   0.80921415 -0.00807921  0.72192756
   0.40804908  0.49852437  0.28049355
   0.30240711  0.49846383  0.72264628
   0.06128649 -0.01184275  0.37396614
   0.13383408  0.01427246 -0.00333307
   0.56107101  0.51035899  0.36953393
   0.62695716  0.49322195 -0.01344034
   0.93897864 -0.01332817  0.62719658
   0.86827670  0.00660183  1.00637706
   0.44018608  0.47765485  0.62592086
   0.36814680  0.50439272  1.00395644
   0.15218218  0.48946177  0.70916782
   0.24955000  0.49856123  0.36883483
   0.65682159  0.00196457  0.71742918
   0.74853561  0.00957032  0.37392676
   0.84841431  0.50549751  0.29529132
   0.75015955  0.50816050  0.62752388
   0.35184721 -0.01296108  0.30386399
   0.25301335 -0.00519839  0.62895299
   0.43797489  0.99774026  0.61803254
Direct configuration=    30
   0.09187154 -0.00453279  0.71715262
   0.18790393  0.00390501  0.28111514
   0.59882841  0.50589720  0.71456598
   0.69229437  0.49577107  0.27432633
   0.90810872  0.00066745  0.28510126
   0.80920951 -0.00811556  0.72183201
   0.40801202  0.49841832  0.28011734
   0.30239940  0.49850500  0.72267151
   0.06117393 -0.01196832  0.37406078
   0.13389741  0.01393706 -0.00347748
   0.56133375  0.51058711  0.36963421
   0.62687366  0.49324535 -0.01358343
   0.93901689 -0.01297904  0.62743407
   0.86843139  0.00645878  1.00647957
   0.44029710  0.47852562  0.62618910
   0.36826714  0.50419150  1.00465470
   0.15217373  0.48983678  0.70919564
   0.24964801  0.49838360  0.36921931
   0.65697969  0.00217219  0.71748050
   0.74862319  0.00951398  0.37416387
   0.84854815  0.50570218  0.29508837
   0.75025771  0.50786748  0.62767917
   0.35188331 -0.01272933  0.30434098
   0.25286171 -0.00515701  0.62870784
   0.43712837  0.99629453  0.61738372
Direct configuration=    31
   0.09185937 -0.00465168  0.71716566
   0.18782635  0.00397071  0.28096025
   0.59882326  0.50593224  0.71464519
   0.69232360  0.49568015  0.27429270
   0.90802561  0.00067803  0.28504551
   0.80919919 -0.00815633  0.72173116
   0.40797014  0.49830455  0.27974343
   0.30239162  0.49854759  0.72269474
   0.06107715 -0.01210211  0.37415765
   0.13396941  0.01357608 -0.00359420
   0.56160561  0.51083167  0.36975371