0.000000000000000000e+00 3.309019999999999850e+00 1.587709999999999955e+00 9.927049999999999486e+00 6.618030000000000079e+00 4.763139999999999930e+00 6.618030000000000079e+00 3.309019999999999850e+00 7.938570000000000348e+00 9.927049999999999486e+00 0.000000000000000000e+00 1.111398999999999937e+01 6.618030000000000079e+00 9.927049999999999486e+00 1.587709999999999955e+00 3.309019999999999850e+00 6.618030000000000079e+00 1.111398999999999937e+01 0.000000000000000000e+00 9.927049999999999486e+00 7.938570000000000348e+00 3.309019999999999850e+00 0.000000000000000000e+00 4.763139999999999930e+00 3.309019999999999850e+00 0.000000000000000000e+00 1.111398999999999937e+01 3.309019999999999850e+00 6.618030000000000079e+00 4.763139999999999930e+00 9.927049999999999486e+00 0.000000000000000000e+00 4.763139999999999930e+00 9.927049999999999486e+00 6.618030000000000079e+00 1.111398999999999937e+01 6.618030000000000079e+00 9.927049999999999486e+00 7.938570000000000348e+00 0.000000000000000000e+00 9.927049999999999486e+00 1.587709999999999955e+00 0.000000000000000000e+00 3.309019999999999850e+00 7.938570000000000348e+00 6.618030000000000079e+00 3.309019999999999850e+00 1.587709999999999955e+00 1.065709999999999935e+00 2.150399999999999867e+00 1.182347000000000037e+01 1.108567000000000036e+01 7.683740000000000236e+00 2.297190000000000065e+00 5.552330000000000432e+00 4.467629999999999768e+00 5.472610000000000419e+00 8.768440000000000012e+00 1.217036000000000051e+01 8.648039999999999949e+00 7.683740000000000236e+00 1.108567000000000036e+01 4.053670000000000329e+00 4.467629999999999768e+00 5.552330000000000432e+00 8.782400000000000206e-01 1.217036000000000051e+01 8.768440000000000012e+00 1.040451999999999977e+01 2.150399999999999867e+00 1.065709999999999935e+00 7.229090000000000238e+00 1.217036000000000051e+01 4.467629999999999768e+00 4.053670000000000329e+00 2.150399999999999867e+00 1.217036000000000051e+01 8.782400000000000206e-01 7.683740000000000236e+00 2.150399999999999867e+00 1.040451999999999977e+01 4.467629999999999768e+00 7.683740000000000236e+00 7.229090000000000238e+00 5.552330000000000432e+00 8.768440000000000012e+00 1.182347000000000037e+01 8.768440000000000012e+00 1.065709999999999935e+00 2.297190000000000065e+00 1.065709999999999935e+00 1.108567000000000036e+01 5.472610000000000419e+00 1.108567000000000036e+01 5.552330000000000432e+00 8.648039999999999949e+00 7.683740000000000236e+00 8.768440000000000012e+00 5.472610000000000419e+00 4.467629999999999768e+00 1.065709999999999935e+00 8.648039999999999949e+00 1.217036000000000051e+01 1.108567000000000036e+01 1.182347000000000037e+01 2.150399999999999867e+00 5.552330000000000432e+00 2.297190000000000065e+00 1.065709999999999935e+00 4.467629999999999768e+00 1.040451999999999977e+01 1.108567000000000036e+01 1.217036000000000051e+01 7.229090000000000238e+00 5.552330000000000432e+00 2.150399999999999867e+00 4.053670000000000329e+00 8.768440000000000012e+00 7.683740000000000236e+00 8.782400000000000206e-01 5.552330000000000432e+00 1.108567000000000036e+01 1.040451999999999977e+01 8.768440000000000012e+00 5.552330000000000432e+00 7.229090000000000238e+00 1.065709999999999935e+00 8.768440000000000012e+00 4.053670000000000329e+00 1.108567000000000036e+01 1.065709999999999935e+00 8.782400000000000206e-01 1.217036000000000051e+01 2.150399999999999867e+00 5.472610000000000419e+00 2.150399999999999867e+00 7.683740000000000236e+00 8.648039999999999949e+00 7.683740000000000236e+00 4.467629999999999768e+00 1.182347000000000037e+01 4.467629999999999768e+00 1.217036000000000051e+01 2.297190000000000065e+00 2.398519999999999985e+00 2.398519999999999985e+00 9.526279999999999859e+00 1.083755000000000024e+01 9.016560000000000130e+00 0.000000000000000000e+00 4.219509999999999650e+00 4.219509999999999650e+00 3.175429999999999975e+00 9.016560000000000130e+00 1.083755000000000024e+01 6.350850000000000328e+00 1.083755000000000024e+01 4.219509999999999650e+00 6.350850000000000328e+00 2.398519999999999985e+00 1.083755000000000024e+01 3.175429999999999975e+00 9.016560000000000130e+00 2.398519999999999985e+00 0.000000000000000000e+00 4.219509999999999650e+00 9.016560000000000130e+00 9.526279999999999859e+00 9.016560000000000130e+00 9.016560000000000130e+00 3.175429999999999975e+00 4.219509999999999650e+00 2.398519999999999985e+00 6.350850000000000328e+00 1.083755000000000024e+01 1.083755000000000024e+01 9.526279999999999859e+00 2.398519999999999985e+00 4.219509999999999650e+00 0.000000000000000000e+00 4.219509999999999650e+00 1.083755000000000024e+01 0.000000000000000000e+00 9.016560000000000130e+00 4.219509999999999650e+00 9.526279999999999859e+00 2.398519999999999985e+00 9.016560000000000130e+00 6.350850000000000328e+00 1.083755000000000024e+01 2.398519999999999985e+00 3.175429999999999975e+00 0.000000000000000000e+00 0.000000000000000000e+00 0.000000000000000000e+00 0.000000000000000000e+00 6.618030000000000079e+00 3.175429999999999975e+00 6.618030000000000079e+00 6.618030000000000079e+00 6.350850000000000328e+00 6.618030000000000079e+00 0.000000000000000000e+00 9.526279999999999859e+00 6.618030000000000079e+00 0.000000000000000000e+00 3.175429999999999975e+00 6.618030000000000079e+00 6.618030000000000079e+00 0.000000000000000000e+00 0.000000000000000000e+00 6.618030000000000079e+00 9.526279999999999859e+00 0.000000000000000000e+00 0.000000000000000000e+00 6.350850000000000328e+00 1.685880000000000045e+00 3.309019999999999850e+00 4.763139999999999930e+00 9.927049999999999486e+00 8.303910000000000124e+00 7.938570000000000348e+00 4.932159999999999656e+00 3.309019999999999850e+00 1.111398999999999937e+01 9.927049999999999486e+00 1.155019000000000062e+01 1.587709999999999955e+00 8.303910000000000124e+00 9.927049999999999486e+00 1.111398999999999937e+01 3.309019999999999850e+00 4.932159999999999656e+00 7.938570000000000348e+00 1.155019000000000062e+01 9.927049999999999486e+00 4.763139999999999930e+00 3.309019999999999850e+00 1.685880000000000045e+00 1.587709999999999955e+00 1.155019000000000062e+01 3.309019999999999850e+00 1.111398999999999937e+01 3.309019999999999850e+00 1.155019000000000062e+01 7.938570000000000348e+00 8.303910000000000124e+00 3.309019999999999850e+00 4.763139999999999930e+00 3.309019999999999850e+00 8.303910000000000124e+00 1.587709999999999955e+00 4.932159999999999656e+00 9.927049999999999486e+00 4.763139999999999930e+00 9.927049999999999486e+00 1.685880000000000045e+00 7.938570000000000348e+00 1.685880000000000045e+00 9.927049999999999486e+00 1.111398999999999937e+01 9.927049999999999486e+00 4.932159999999999656e+00 1.587709999999999955e+00 0.000000000000000000e+00 0.000000000000000000e+00 3.175429999999999975e+00 0.000000000000000000e+00 6.618030000000000079e+00 6.350850000000000328e+00 6.618030000000000079e+00 6.618030000000000079e+00 9.526279999999999859e+00 6.618030000000000079e+00 0.000000000000000000e+00 0.000000000000000000e+00 0.000000000000000000e+00 6.618030000000000079e+00 0.000000000000000000e+00 0.000000000000000000e+00 0.000000000000000000e+00 9.526279999999999859e+00 6.618030000000000079e+00 0.000000000000000000e+00 6.350850000000000328e+00 6.618030000000000079e+00 6.618030000000000079e+00 3.175429999999999975e+00 4.581799999999999762e-01 2.574640000000000040e+00 9.890869999999999607e+00 1.066142999999999930e+01 7.076209999999999667e+00 3.645900000000000252e-01 6.159860000000000113e+00 4.043389999999999596e+00 3.540020000000000167e+00 9.192679999999999296e+00 1.277788999999999930e+01 6.715440000000000076e+00 7.076209999999999667e+00 1.066142999999999930e+01 5.986259999999999692e+00 4.043389999999999596e+00 6.159860000000000113e+00 2.810839999999999783e+00 1.277788999999999930e+01 9.192679999999999296e+00 1.233712000000000053e+01 2.574640000000000040e+00 4.581799999999999762e-01 9.161690000000000111e+00 1.277788999999999930e+01 4.043389999999999596e+00 5.986259999999999692e+00 2.574640000000000040e+00 1.277788999999999930e+01 2.810839999999999783e+00 7.076209999999999667e+00 2.574640000000000040e+00 1.233712000000000053e+01 4.043389999999999596e+00 7.076209999999999667e+00 9.161690000000000111e+00 6.159860000000000113e+00 9.192679999999999296e+00 9.890869999999999607e+00 9.192679999999999296e+00 4.581799999999999762e-01 3.645900000000000252e-01 4.581799999999999762e-01 1.066142999999999930e+01 3.540020000000000167e+00 1.066142999999999930e+01 6.159860000000000113e+00 6.715440000000000076e+00 7.076209999999999667e+00 9.192679999999999296e+00 3.540020000000000167e+00 4.043389999999999596e+00 4.581799999999999762e-01 6.715440000000000076e+00 1.277788999999999930e+01 1.066142999999999930e+01 9.890869999999999607e+00 2.574640000000000040e+00 6.159860000000000113e+00 3.645900000000000252e-01 4.581799999999999762e-01 4.043389999999999596e+00 1.233712000000000053e+01 1.066142999999999930e+01 1.277788999999999930e+01 9.161690000000000111e+00 6.159860000000000113e+00 2.574640000000000040e+00 5.986259999999999692e+00 9.192679999999999296e+00 7.076209999999999667e+00 2.810839999999999783e+00 6.159860000000000113e+00 1.066142999999999930e+01 1.233712000000000053e+01 9.192679999999999296e+00 6.159860000000000113e+00 9.161690000000000111e+00 4.581799999999999762e-01 9.192679999999999296e+00 5.986259999999999692e+00 1.066142999999999930e+01 4.581799999999999762e-01 2.810839999999999783e+00 1.277788999999999930e+01 2.574640000000000040e+00 3.540020000000000167e+00 2.574640000000000040e+00 7.076209999999999667e+00 6.715440000000000076e+00 7.076209999999999667e+00 4.043389999999999596e+00 9.890869999999999607e+00 4.043389999999999596e+00 1.277788999999999930e+01 3.645900000000000252e-01 7.274899999999999700e-01 1.355939999999999923e+00 1.151629999999999932e+00 1.188012999999999941e+01 7.345530000000000115e+00 4.327049999999999841e+00 5.890539999999999665e+00 5.262089999999999712e+00 7.502480000000000260e+00 7.973980000000000068e+00 1.250858000000000025e+01 1.067791000000000068e+01 7.345530000000000115e+00 1.188012999999999941e+01 2.023800000000000043e+00 5.262089999999999712e+00 5.890539999999999665e+00 1.155007999999999946e+01 1.250858000000000025e+01 7.973980000000000068e+00 8.374650000000000816e+00 1.355939999999999923e+00 7.274899999999999700e-01 5.199230000000000018e+00 1.250858000000000025e+01 5.262089999999999712e+00 2.023800000000000043e+00 1.355939999999999923e+00 1.250858000000000025e+01 1.155007999999999946e+01 7.345530000000000115e+00 1.355939999999999923e+00 8.374650000000000816e+00 5.262089999999999712e+00 7.345530000000000115e+00 5.199230000000000018e+00 5.890539999999999665e+00 7.973980000000000068e+00 1.151629999999999932e+00 7.973980000000000068e+00 7.274899999999999700e-01 4.327049999999999841e+00 7.274899999999999700e-01 1.188012999999999941e+01 7.502480000000000260e+00 1.188012999999999941e+01 5.890539999999999665e+00 1.067791000000000068e+01 7.345530000000000115e+00 7.973980000000000068e+00 7.502480000000000260e+00 5.262089999999999712e+00 7.274899999999999700e-01 1.067791000000000068e+01 1.250858000000000025e+01 1.188012999999999941e+01 1.151629999999999932e+00 1.355939999999999923e+00 5.890539999999999665e+00 4.327049999999999841e+00 7.274899999999999700e-01 5.262089999999999712e+00 8.374650000000000816e+00 1.188012999999999941e+01 1.250858000000000025e+01 5.199230000000000018e+00 5.890539999999999665e+00 1.355939999999999923e+00 2.023800000000000043e+00 7.973980000000000068e+00 7.345530000000000115e+00 1.155007999999999946e+01 5.890539999999999665e+00 1.188012999999999941e+01 8.374650000000000816e+00 7.973980000000000068e+00 5.890539999999999665e+00 5.199230000000000018e+00 7.274899999999999700e-01 7.973980000000000068e+00 2.023800000000000043e+00 1.188012999999999941e+01 7.274899999999999700e-01 1.155007999999999946e+01 1.250858000000000025e+01 1.355939999999999923e+00 7.502480000000000260e+00 1.355939999999999923e+00 7.345530000000000115e+00 1.067791000000000068e+01 7.345530000000000115e+00 5.262089999999999712e+00 1.151629999999999932e+00 5.262089999999999712e+00 1.250858000000000025e+01 4.327049999999999841e+00 1.996299999999999963e+00 2.954649999999999999e+00 7.255670000000000286e+00 1.028142000000000067e+01 8.614340000000000330e+00 1.043110000000000070e+01 4.621730000000000338e+00 3.663390000000000146e+00 9.048199999999999577e-01 9.572680000000000078e+00 1.123977000000000004e+01 4.080250000000000377e+00 8.614340000000000330e+00 1.028142000000000067e+01 8.621460000000000790e+00 3.663390000000000146e+00 4.621730000000000338e+00 5.446030000000000371e+00 1.123977000000000004e+01 9.572680000000000078e+00 2.270610000000000017e+00 2.954649999999999999e+00 1.996299999999999963e+00 1.179688999999999943e+01 1.123977000000000004e+01 3.663390000000000146e+00 8.621460000000000790e+00 2.954649999999999999e+00 1.123977000000000004e+01 5.446030000000000371e+00 8.614340000000000330e+00 2.954649999999999999e+00 2.270610000000000017e+00 3.663390000000000146e+00 8.614340000000000330e+00 1.179688999999999943e+01 4.621730000000000338e+00 9.572680000000000078e+00 7.255670000000000286e+00 9.572680000000000078e+00 1.996299999999999963e+00 1.043110000000000070e+01 1.996299999999999963e+00 1.028142000000000067e+01 9.048199999999999577e-01 1.028142000000000067e+01 4.621730000000000338e+00 4.080250000000000377e+00 8.614340000000000330e+00 9.572680000000000078e+00 9.048199999999999577e-01 3.663390000000000146e+00 1.996299999999999963e+00 4.080250000000000377e+00 1.123977000000000004e+01 1.028142000000000067e+01 7.255670000000000286e+00 2.954649999999999999e+00 4.621730000000000338e+00 1.043110000000000070e+01 1.996299999999999963e+00 3.663390000000000146e+00 2.270610000000000017e+00 1.028142000000000067e+01 1.123977000000000004e+01 1.179688999999999943e+01 4.621730000000000338e+00 2.954649999999999999e+00 8.621460000000000790e+00 9.572680000000000078e+00 8.614340000000000330e+00 5.446030000000000371e+00 4.621730000000000338e+00 1.028142000000000067e+01 2.270610000000000017e+00 9.572680000000000078e+00 4.621730000000000338e+00 1.179688999999999943e+01 1.996299999999999963e+00 9.572680000000000078e+00 8.621460000000000790e+00 1.028142000000000067e+01 1.996299999999999963e+00 5.446030000000000371e+00 1.123977000000000004e+01 2.954649999999999999e+00 9.048199999999999577e-01 2.954649999999999999e+00 8.614340000000000330e+00 4.080250000000000377e+00 8.614340000000000330e+00 3.663390000000000146e+00 7.255670000000000286e+00 3.663390000000000146e+00 1.123977000000000004e+01 1.043110000000000070e+01
6.700000000000000226e-04 3.310649999999999871e+00 1.586829999999999963e+00 9.926339999999999719e+00 6.616159999999999819e+00 4.766619999999999635e+00 6.618350000000000399e+00 3.308749999999999858e+00 7.937839999999999563e+00 9.926679999999999282e+00 8.899999999999999491e-04 1.111247000000000007e+01 6.616970000000000240e+00 9.927509999999999835e+00 1.588300000000000045e+00 3.307440000000000158e+00 6.617759999999999643e+00 1.111505000000000010e+01 2.220000000000000185e-03 9.925670000000000215e+00 7.938170000000000393e+00 3.307290000000000063e+00 1.323442999999999969e+01 4.759909999999999641e+00 3.309400000000000119e+00 7.900000000000000121e-04 1.111489000000000082e+01 3.309750000000000192e+00 6.617029999999999745e+00 4.764509999999999579e+00 9.928449999999999775e+00 1.323504999999999932e+01 4.765139999999999709e+00 9.927929999999999922e+00 6.620610000000000106e+00 1.111284000000000027e+01 6.619519999999999627e+00 9.926679999999999282e+00 7.937700000000000422e+00 1.200000000000000030e-04 9.927920000000000300e+00 1.588649999999999896e+00 9.700000000000000505e-04 3.311459999999999848e+00 7.936359999999999637e+00 6.617309999999999803e+00 3.308930000000000149e+00 1.587360000000000104e+00 1.061849999999999961e+00 2.160629999999999828e+00 1.182248000000000054e+01 1.107417000000000051e+01 7.689230000000000231e+00 2.287490000000000023e+00 5.570389999999999731e+00 4.468390000000000306e+00 5.465150000000000396e+00 8.768010000000000304e+00 1.216681999999999952e+01 8.664389999999999148e+00 7.672270000000000145e+00 1.107873999999999981e+01 4.059919999999999973e+00 4.468140000000000001e+00 5.551720000000000432e+00 8.582899999999999974e-01 1.217730000000000068e+01 8.765800000000000480e+00 1.039711999999999925e+01 2.144229999999999858e+00 1.064400000000000013e+00 7.223819999999999908e+00 1.216684000000000054e+01 4.473390000000000200e+00 4.061880000000000379e+00 2.147870000000000168e+00 1.215934000000000026e+01 8.802299999999999569e-01 7.690140000000000420e+00 2.149809999999999999e+00 1.039771000000000001e+01 4.456400000000000361e+00 7.688480000000000203e+00 7.222870000000000346e+00 5.551520000000000010e+00 8.775619999999999976e+00 1.182075000000000031e+01 8.774240000000000705e+00 1.060489999999999933e+00 2.296079999999999899e+00 1.059180000000000010e+00 1.107554000000000016e+01 5.478040000000000020e+00 1.108623000000000047e+01 5.547109999999999985e+00 8.644140000000000157e+00 7.693590000000000373e+00 8.767269999999999897e+00 5.468829999999999636e+00 4.471250000000000391e+00 1.075220000000000065e+00 8.649179999999999424e+00 1.218532000000000082e+01 1.108014999999999972e+01 1.182916999999999952e+01 2.152229999999999865e+00 5.546129999999999782e+00 2.299290000000000056e+00 1.059719999999999995e+00 4.470519999999999605e+00 1.040686000000000000e+01 1.107876000000000083e+01 1.216408999999999985e+01 7.244159999999999933e+00 5.539320000000000022e+00 2.162319999999999798e+00 4.054649999999999643e+00 8.767400000000000304e+00 7.685019999999999740e+00 8.813999999999999613e-01 5.551820000000000199e+00 1.109684999999999988e+01 1.040502000000000038e+01 8.770619999999999195e+00 5.551590000000000025e+00 7.226969999999999672e+00 1.068670000000000009e+00 8.771850000000000591e+00 4.046009999999999884e+00 1.108996999999999922e+01 1.072130000000000027e+00 8.808799999999999963e-01 1.217409999999999926e+01 2.146609999999999907e+00 5.468259999999999899e+00 2.149220000000000130e+00 7.672649999999999970e+00 8.648460000000000036e+00 7.684989999999999988e+00 4.470439999999999969e+00 1.182765999999999984e+01 4.463059999999999583e+00 1.217478999999999978e+01 2.295100000000000140e+00 2.404589999999999783e+00 2.402270000000000127e+00 9.523170000000000357e+00 1.083338999999999963e+01 9.017070000000000363e+00 1.269406000000000034e+01 4.210860000000000269e+00 4.215329999999999799e+00 3.169779999999999820e+00 9.025270000000000792e+00 1.083727999999999980e+01 6.348029999999999617e+00 1.083459000000000039e+01 4.216400000000000148e+00 6.351040000000000241e+00 2.395620000000000083e+00 1.083660000000000068e+01 3.180449999999999999e+00 9.016740000000000421e+00 2.396339999999999915e+00 1.639999999999999965e-03 4.220600000000000129e+00 9.019550000000000622e+00 9.534489999999999910e+00 9.018159999999999954e+00 9.015629999999999811e+00 3.181459999999999955e+00 4.220550000000000246e+00 2.392539999999999889e+00 6.347579999999999778e+00 1.084240999999999921e+01 1.083426000000000045e+01 9.525819999999999510e+00 2.408549999999999969e+00 4.228790000000000049e+00 1.269843000000000011e+01 4.216610000000000191e+00 1.084623000000000026e+01 9.820000000000000603e-03 9.022930000000000561e+00 4.220200000000000173e+00 9.523580000000000823e+00 2.414089999999999847e+00 9.011929999999999552e+00 6.356720000000000148e+00 1.084338999999999942e+01 2.394769999999999843e+00 3.177919999999999856e+00 1.323133999999999943e+01 1.288000000000000082e-02 1.269727999999999923e+01 1.323171999999999926e+01 6.622819999999999929e+00 3.174939999999999873e+00 6.621629999999999683e+00 6.627799999999999692e+00 6.353139999999999787e+00 6.617479999999999585e+00 1.323318000000000083e+01 9.524350000000000094e+00 6.611259999999999692e+00 4.830000000000000092e-03 3.168210000000000193e+00 6.619130000000000180e+00 6.616600000000000037e+00 1.269311000000000078e+01 1.323534000000000077e+01 6.607359999999999900e+00 9.534039999999999182e+00 1.323268000000000022e+01 1.323221000000000025e+01 6.349510000000000431e+00 1.684949999999999948e+00 3.307749999999999968e+00 4.763440000000000119e+00 9.926579999999999515e+00 8.301909999999999457e+00 7.939560000000000173e+00 4.931429999999999758e+00 3.307739999999999903e+00 1.111322000000000010e+01 9.928240000000000620e+00 1.154949000000000048e+01 1.588379999999999903e+00 8.303860000000000241e+00 9.924860000000000682e+00 1.111562999999999946e+01 3.308930000000000149e+00 4.932249999999999801e+00 7.940599999999999881e+00 1.155044999999999966e+01 9.926640000000000796e+00 4.762319999999999887e+00 3.308670000000000222e+00 1.686139999999999972e+00 1.587120000000000086e+00 1.155179000000000045e+01 3.309349999999999792e+00 1.111214000000000013e+01 3.308590000000000142e+00 1.155084000000000088e+01 7.938869999999999649e+00 8.302210000000000534e+00 3.308429999999999982e+00 4.762349999999999639e+00 3.306449999999999889e+00 8.303960000000000008e+00 1.588510000000000089e+00 4.932579999999999742e+00 9.930979999999999919e+00 4.760369999999999990e+00 9.924910000000000565e+00 1.685799999999999965e+00 7.938760000000000261e+00 1.685070000000000068e+00 9.928630000000000067e+00 1.111367000000000083e+01 9.928440000000000154e+00 4.932789999999999786e+00 1.587749999999999995e+00 1.323457999999999934e+01 1.319999999999999993e-03 3.176140000000000185e+00 1.323606000000000016e+01 6.619030000000000413e+00 6.352009999999999934e+00 6.618030000000000079e+00 6.618380000000000152e+00 9.524869999999999948e+00 6.618850000000000122e+00 1.323564000000000007e+01 7.799999999999999859e-04 8.000000000000000654e-05 6.618059999999999832e+00 2.050000000000000173e-03 6.599999999999999964e-04 3.400000000000000244e-04 9.527250000000000441e+00 6.615779999999999994e+00 1.323563000000000045e+01 6.348410000000000331e+00 6.619640000000000413e+00 6.618949999999999889e+00 3.176210000000000200e+00 4.635400000000000076e-01 2.575579999999999981e+00 9.886380000000000834e+00 1.065991000000000000e+01 7.082049999999999734e+00 3.645599999999999952e-01 6.160440000000000360e+00 4.034040000000000070e+00 3.546060000000000212e+00 9.194539999999999935e+00 1.277825999999999951e+01 6.715379999999999683e+00 7.077359999999999651e+00 1.065448999999999913e+01 5.984049999999999869e+00 4.041479999999999961e+00 6.163170000000000037e+00 2.809559999999999835e+00 1.277816999999999936e+01 9.191179999999999239e+00 1.233225000000000016e+01 2.576350000000000140e+00 4.509799999999999920e-01 9.159299999999999997e+00 1.277515000000000001e+01 4.044520000000000337e+00 5.988850000000000229e+00 2.571610000000000174e+00 1.276984999999999992e+01 2.814659999999999940e+00 7.077020000000000088e+00 2.568070000000000075e+00 1.233608000000000082e+01 4.038050000000000139e+00 7.080040000000000333e+00 9.160790000000000433e+00 6.155940000000000190e+00 9.192800000000000082e+00 9.892709999999999226e+00 9.190269999999999939e+00 4.526800000000000268e-01 3.610499999999999821e-01 4.537100000000000022e-01 1.066065000000000040e+01 3.534689999999999888e+00 1.066381999999999941e+01 6.154250000000000220e+00 6.712909999999999933e+00 7.075919999999999987e+00 9.195019999999999527e+00 3.540020000000000167e+00 4.042320000000000135e+00 4.510600000000000165e-01 6.717489999999999739e+00 1.277558999999999934e+01 1.066511000000000031e+01 9.883839999999999293e+00 2.581799999999999873e+00 6.157390000000000363e+00 3.613500000000000045e-01 4.545199999999999796e-01 4.040840000000000209e+00 1.233845999999999954e+01 1.065582999999999991e+01 1.277739000000000047e+01 9.159290000000000376e+00 6.162910000000000110e+00 2.576150000000000162e+00 5.990370000000000417e+00 9.192529999999999646e+00 7.075789999999999580e+00 2.811209999999999987e+00 6.162550000000000416e+00 1.066188999999999965e+01 1.233197000000000010e+01 9.191349999999999909e+00 6.158129999999999882e+00 9.167320000000000135e+00 4.595899999999999985e-01 9.191509999999999181e+00 5.987309999999999910e+00 1.066704999999999970e+01 4.529699999999999838e-01 2.807640000000000136e+00 1.277901999999999916e+01 2.569830000000000059e+00 3.545319999999999805e+00 2.570870000000000211e+00 7.082309999999999661e+00 6.710779999999999745e+00 7.074019999999999975e+00 4.043289999999999829e+00 9.894790000000000418e+00 4.039769999999999861e+00 1.277849999999999930e+01 3.757900000000000129e-01 7.298799999999999732e-01 1.355629999999999891e+00 1.149450000000000083e+00 1.188057000000000052e+01 7.339520000000000266e+00 4.326570000000000249e+00 5.882390000000000008e+00 5.258149999999999658e+00 7.506339999999999790e+00 7.976200000000000401e+00 1.251169999999999938e+01 1.067558999999999969e+01 7.348139999999999894e+00 1.187717999999999918e+01 2.020480000000000054e+00 5.253759999999999764e+00 5.892330000000000290e+00 1.155047000000000068e+01 1.250878999999999941e+01 7.975999999999999979e+00 8.372759999999999536e+00 1.359259999999999913e+00 7.254899999999999682e-01 5.201649999999999885e+00 1.250562000000000040e+01 5.267179999999999751e+00 2.020589999999999886e+00 1.353180000000000049e+00 1.251252000000000031e+01 1.155189000000000021e+01 7.340709999999999624e+00 1.360119999999999996e+00 8.371969999999999246e+00 5.266250000000000320e+00 7.341910000000000380e+00 5.199880000000000280e+00 5.884220000000000006e+00 7.977219999999999978e+00 1.152220000000000022e+00 7.980089999999999684e+00 7.159999999999999698e-01 4.330409999999999648e+00 7.279999999999999805e-01 1.187811999999999912e+01 7.496959999999999624e+00 1.188274999999999970e+01 5.894569999999999865e+00 1.067937000000000047e+01 7.348840000000000039e+00 7.976329999999999920e+00 7.497659999999999769e+00 5.264630000000000365e+00 7.288000000000000034e-01 1.067731000000000030e+01 1.250608000000000075e+01 1.188164000000000087e+01 1.155389999999999917e+00 1.359010000000000051e+00 5.889129999999999754e+00 4.327619999999999578e+00 7.212399999999999922e-01 5.260430000000000383e+00 8.371359999999999246e+00 1.188724999999999987e+01 1.250900000000000034e+01 5.198599999999999888e+00 5.894860000000000433e+00 1.356039999999999912e+00 2.026800000000000157e+00 7.975500000000000256e+00 7.345589999999999620e+00 1.154975999999999914e+01 5.885799999999999699e+00 1.187818000000000040e+01 8.374660000000000437e+00 7.971729999999999983e+00 5.890410000000000146e+00 5.198780000000000179e+00 7.314500000000000446e-01 7.974630000000000329e+00 2.027390000000000025e+00 1.188550000000000040e+01 7.318500000000000005e-01 1.154388999999999932e+01 1.251609000000000016e+01 1.355469999999999953e+00 7.502220000000000333e+00 1.363350000000000062e+00 7.344470000000000276e+00 1.067398999999999987e+01 7.346149999999999736e+00 5.251479999999999926e+00 1.157750000000000057e+00 5.267789999999999750e+00 1.250869999999999926e+01 4.326209999999999667e+00 1.998609999999999998e+00 2.953539999999999832e+00 7.264540000000000219e+00 1.029269999999999996e+01 8.618439999999999657e+00 1.043235999999999919e+01 4.621010000000000062e+00 3.663809999999999789e+00 9.080500000000000238e-01 9.569300000000000139e+00 1.124178000000000033e+01 4.075420000000000265e+00 8.612869999999999138e+00 1.028336999999999968e+01 8.619989999999999597e+00 3.670760000000000023e+00 4.626000000000000334e+00 5.446749999999999758e+00 1.124010999999999960e+01 9.580360000000000653e+00 2.268050000000000122e+00 2.950810000000000155e+00 1.996969999999999912e+00 1.180197000000000074e+01 1.124516000000000027e+01 3.663339999999999819e+00 8.622840000000000060e+00 2.947709999999999830e+00 1.124896999999999991e+01 5.443290000000000184e+00 8.616780000000000328e+00 2.956890000000000018e+00 2.276390000000000136e+00 3.665509999999999824e+00 8.616680000000000561e+00 1.179025000000000034e+01 4.622659999999999769e+00 9.569359999999999644e+00 7.253940000000000055e+00 9.582269999999999399e+00 1.998580000000000023e+00 1.043408999999999942e+01 1.994660000000000100e+00 1.027871000000000024e+01 9.044299999999999562e-01 1.027457000000000065e+01 4.619679999999999787e+00 4.077609999999999957e+00 8.616440000000000765e+00 9.577009999999999579e+00 9.086300000000000487e-01 3.667510000000000048e+00 1.994620000000000060e+00 4.083129999999999704e+00 1.123349999999999937e+01 1.027738000000000085e+01 7.256890000000000285e+00 2.949650000000000105e+00 4.621879999999999988e+00 1.043307000000000073e+01 1.995589999999999975e+00 3.663759999999999906e+00 2.263199999999999878e+00 1.028588000000000058e+01 1.124263000000000012e+01 1.179631999999999969e+01 4.617009999999999614e+00 2.957279999999999909e+00 8.622469999999999857e+00 9.581519999999999371e+00 8.616469999999999629e+00 5.452350000000000030e+00 4.617930000000000312e+00 1.028658000000000072e+01 2.271290000000000031e+00 9.570919999999999206e+00 4.629010000000000069e+00 1.180007999999999946e+01 1.994259999999999922e+00 9.569770000000000110e+00 8.618320000000000647e+00 1.027657999999999916e+01 1.986650000000000027e+00 5.446740000000000137e+00 1.124141000000000012e+01 2.952389999999999848e+00 9.023799999999999599e-01 2.958600000000000119e+00 8.608449999999999491e+00 4.080000000000000071e+00 8.608050000000000423e+00 3.663520000000000110e+00 7.256789999999999630e+00 3.671139999999999848e+00 1.123695000000000022e+01 1.043158999999999992e+01