-1.380210798820000036e+03
-1.380190272990000039e+03
-1.380104721769999969e+03
-1.379955761870000060e+03
-1.379746871920000103e+03
-1.379483470549999993e+03
-1.379172379489999912e+03
-1.378821712749999961e+03
-1.378440288869999904e+03
-1.378037372120000100e+03
-1.377622277279999935e+03
-1.376013974490000010e+03
-1.374610388520000015e+03
-1.374121836849999909e+03
-1.373611853560000100e+03
-1.372779008429999976e+03
-1.371474791610000011e+03
-1.369745523130000038e+03
-1.368927846459999955e+03
-1.370827814940000053e+03
-1.371019151790000024e+03
-1.371067142769999919e+03
-1.370692233400000077e+03
-1.370317667909999955e+03
-1.370719767900000079e+03
-1.371168916800000034e+03
-1.371818597969999928e+03
-1.372256922190000068e+03
-1.372849699939999937e+03
-1.373068638819999933e+03
-1.373273625790000096e+03
-1.373591230400000086e+03
-1.373807022920000009e+03
-1.373864549379999971e+03
-1.374138861520000091e+03
-1.373663024570000061e+03
-1.373275788619999958e+03
-1.372841085819999989e+03
-1.372882479119999971e+03
-1.373279834910000091e+03
-1.373061174619999974e+03
-1.372880461440000090e+03
-1.372917916749999904e+03
-1.372352116699999897e+03
-1.372670182329999989e+03
-1.372912964529999954e+03
-1.373012663060000023e+03
-1.373367147359999990e+03
-1.373476906300000110e+03
-1.373263269080000100e+03
-1.373092200990000038e+03
-1.372576499329999933e+03
-1.372383844050000107e+03
-1.373025631299999986e+03
-1.372757860259999916e+03
-1.373148866270000099e+03
-1.373060788340000045e+03
-1.372298385800000005e+03
-1.373043310779999956e+03
-1.373108665519999931e+03
-1.373898798420000048e+03
-1.373578251010000031e+03
-1.372935432100000071e+03
-1.372862315289999970e+03
-1.372459150650000083e+03
-1.372297189379999963e+03
-1.372780339409999897e+03
-1.372638423310000007e+03
-1.372614014850000103e+03
-1.373613551800000096e+03
-1.373528331889999890e+03
-1.373430741789999956e+03
-1.372691472320000003e+03
-1.372847774079999908e+03
-1.372314253080000071e+03
-1.371569246690000000e+03
-1.372325523720000092e+03
-1.371947860250000076e+03
-1.372001224899999897e+03
-1.372954119479999918e+03
-1.373338466480000079e+03
-1.373300998639999989e+03
-1.372518517400000064e+03
-1.372284879229999888e+03
-1.372507233809999889e+03
-1.372057193890000008e+03
-1.372505531490000067e+03
-1.373903285560000086e+03
-1.373188826040000095e+03
-1.373117136150000078e+03
-1.372316458369999964e+03
-1.373154550080000035e+03
-1.373456954530000075e+03
-1.373014228109999976e+03
-1.372980998660000068e+03
-1.372933710130000009e+03
-1.372228676989999940e+03
-1.372502948560000050e+03
-1.373157601189999923e+03
-1.372976555740000094e+03
-1.372637837329999911e+03
-1.372366677369999934e+03
-1.373011148699999922e+03
-1.372705010390000098e+03
-1.372848187970000026e+03
-1.373188049480000018e+03
-1.373314536200000020e+03
-1.373398356240000112e+03
