-3.999999999999999819e-06 -2.199999999999999943e-05 -1.599999999999999928e-05 -9.000000000000000228e-06 -3.199999999999999855e-05 -1.900000000000000105e-05 6.999999999999999895e-06 -3.300000000000000253e-05 -7.999999999999999638e-06 -1.000000000000000082e-05 -3.399999999999999973e-05 -3.999999999999999819e-06 3.300000000000000253e-05 -3.300000000000000253e-05 2.199999999999999943e-05 -1.299999999999999920e-05 3.399999999999999973e-05 4.199999999999999768e-05 3.999999999999999819e-06 -3.000000000000000076e-05 -2.099999999999999884e-05 1.200000000000000030e-05 3.000000000000000076e-05 -1.999999999999999909e-06 1.900000000000000105e-05 6.899999999999999667e-05 6.999999999999999387e-05 1.099999999999999971e-05 1.099999999999999971e-05 -1.000000000000000082e-05 7.999999999999999638e-06 -2.400000000000000061e-05 -4.300000000000000165e-05 -1.200000000000000030e-05 -3.800000000000000209e-05 -2.599999999999999840e-05 3.000000000000000076e-06 -9.999999999999999547e-07 -1.599999999999999928e-05 -3.699999999999999811e-05 6.000000000000000152e-06 2.099999999999999884e-05 -3.499999999999999693e-05 -1.200000000000000030e-05 2.000000000000000164e-05 0.000000000000000000e+00 3.000000000000000076e-06 2.500000000000000120e-05 1.865500000000000144e-02 3.860100000000000336e-02 1.050000000000000065e-02 -3.856099999999999806e-02 1.864199999999999885e-02 1.049100000000000033e-02 -1.869099999999999928e-02 -3.856799999999999812e-02 1.050199999999999918e-02 3.872400000000000148e-02 -1.879700000000000121e-02 1.053800000000000049e-02 1.864999999999999991e-02 -3.855299999999999699e-02 -1.047299999999999967e-02 -3.865199999999999886e-02 -1.873599999999999918e-02 -1.051299999999999978e-02 -1.869300000000000128e-02 3.854599999999999693e-02 -1.052499999999999963e-02 3.858600000000000224e-02 1.867699999999999916e-02 -1.047599999999999920e-02 -1.866800000000000057e-02 -3.857900000000000218e-02 -1.052299999999999937e-02 3.865400000000000086e-02 -1.880400000000000127e-02 -1.058800000000000019e-02 1.872000000000000053e-02 3.859499999999999736e-02 -1.052499999999999963e-02 -3.863899999999999973e-02 1.870799999999999894e-02 -1.050700000000000071e-02 -1.867800000000000016e-02 3.862000000000000155e-02 1.047999999999999973e-02 3.850900000000000156e-02 1.862499999999999920e-02 1.051200000000000051e-02 1.872499999999999859e-02 -3.863599999999999673e-02 1.052600000000000063e-02 -3.858000000000000318e-02 -1.865800000000000097e-02 1.048800000000000079e-02 1.862199999999999966e-02 3.848599999999999938e-02 1.054199999999999929e-02 -3.849799999999999750e-02 1.865400000000000044e-02 1.051799999999999957e-02 -1.867800000000000016e-02 -3.862600000000000061e-02 1.048200000000000000e-02 3.859400000000000330e-02 -1.874800000000000078e-02 1.058300000000000039e-02 1.860799999999999954e-02 -3.844399999999999901e-02 -1.052900000000000016e-02 -3.864900000000000280e-02 -1.875100000000000031e-02 -1.051400000000000078e-02 -1.861300000000000107e-02 3.851799999999999669e-02 -1.050899999999999924e-02 3.874400000000000066e-02 1.891699999999999979e-02 -1.062399999999999976e-02 -1.873999999999999971e-02 -3.861599999999999755e-02 -1.052299999999999937e-02 3.866300000000000292e-02 -1.880599999999999980e-02 -1.056900000000000027e-02 1.870000000000000134e-02 3.861799999999999955e-02 -1.051299999999999978e-02 -3.846499999999999919e-02 1.860699999999999854e-02 -1.054599999999999982e-02 -1.869699999999999834e-02 3.861599999999999755e-02 1.050099999999999992e-02 3.863699999999999773e-02 1.873000000000000012e-02 1.052299999999999937e-02 1.872100000000000153e-02 -3.867000000000000298e-02 1.049100000000000033e-02 -3.864900000000000280e-02 -1.872000000000000053e-02 1.052299999999999937e-02 -6.818799999999999861e-02 -6.819999999999999674e-02 -1.200000000000000030e-05 6.817700000000000149e-02 -6.818000000000000449e-02 0.000000000000000000e+00 6.818499999999999561e-02 6.818799999999999861e-02 -1.999999999999999909e-06 -6.821699999999999986e-02 6.819999999999999674e-02 9.999999999999999547e-07 6.817499999999999949e-02 6.817900000000000349e-02 1.299999999999999920e-05 -6.815499999999999337e-02 6.817299999999999749e-02 -3.999999999999999819e-06 -6.817600000000000049e-02 -6.817600000000000049e-02 -9.999999999999999547e-07 6.823400000000000298e-02 -6.823999999999999511e-02 3.999999999999999819e-06 -6.831900000000000472e-02 -6.831900000000000472e-02 -6.999999999999999895e-06 6.825299999999999423e-02 -6.826200000000000323e-02 6.999999999999999895e-06 6.823799999999999311e-02 6.823500000000000398e-02 -3.000000000000000076e-06 -6.824600000000000111e-02 6.824099999999999611e-02 -9.999999999999999547e-07 6.821199999999999486e-02 6.820099999999999774e-02 9.999999999999999547e-07 -6.821299999999999586e-02 6.820099999999999774e-02 7.999999999999999638e-06 -6.832699999999999885e-02 -6.833599999999999397e-02 0.000000000000000000e+00 6.817900000000000349e-02 -6.817499999999999949e-02 3.999999999999999819e-06 -1.299999999999999920e-05 -9.000000000000000228e-06 -1.599999999999999928e-05 -1.299999999999999920e-05 -5.000000000000000409e-06 9.999999999999999547e-07 6.999999999999999895e-06 1.399999999999999979e-05 -1.699999999999999987e-05 -1.200000000000000030e-05 -1.399999999999999979e-05 3.999999999999999819e-06 2.599999999999999840e-05 -6.999999999999999895e-06 1.399999999999999979e-05 1.099999999999999971e-05 1.999999999999999909e-06 2.500000000000000120e-05 1.200000000000000030e-05 -1.399999999999999979e-05 -1.099999999999999971e-05 6.999999999999999895e-06 -6.000000000000000152e-06 -9.999999999999999547e-07 5.021300000000000069e-02 1.200000000000000030e-05 0.000000000000000000e+00 5.000000000000000409e-06 5.023199999999999887e-02 5.000000000000000409e-06 -5.019099999999999950e-02 -5.000000000000000409e-06 -1.000000000000000082e-05 9.999999999999999547e-07 -5.019400000000000250e-02 2.599999999999999840e-05 5.021500000000000269e-02 -1.399999999999999979e-05 1.999999999999999909e-06 -2.500000000000000120e-05 -5.022900000000000281e-02 -1.200000000000000030e-05 -5.020000000000000157e-02 -3.999999999999999819e-06 1.099999999999999971e-05 -1.599999999999999928e-05 5.020499999999999963e-02 6.999999999999999895e-06 -5.021199999999999969e-02 9.999999999999999547e-07 -6.000000000000000152e-06 -7.999999999999999638e-06 -5.021199999999999969e-02 -9.000000000000000228e-06 5.020600000000000063e-02 -3.999999999999999819e-06 -9.999999999999999547e-07 -1.699999999999999987e-05 5.020399999999999863e-02 -7.999999999999999638e-06 -5.021199999999999969e-02 -9.000000000000000228e-06 1.099999999999999971e-05 9.999999999999999547e-07 5.020199999999999663e-02 -5.000000000000000409e-06 5.020000000000000157e-02 5.000000000000000409e-06 -2.000000000000000164e-05 -1.399999999999999979e-05 -5.020199999999999663e-02 -6.000000000000000152e-06 -1.000000000000000082e-05 1.200000000000000030e-05 2.000000000000000164e-05 -3.000000000000000076e-06 -3.000000000000000076e-06 1.999999999999999909e-06 -9.999999999999999547e-07 9.000000000000000228e-06 3.000000000000000076e-06 -1.599999999999999928e-05 6.999999999999999895e-06 1.099999999999999971e-05 2.000000000000000164e-05 -1.399999999999999979e-05 9.999999999999999547e-07 -1.099999999999999971e-05 2.099999999999999884e-05 -2.900000000000000017e-05 0.000000000000000000e+00 3.000000000000000076e-06 -1.500000000000000038e-05 -1.399999999999999979e-05 -1.000000000000000082e-05 -6.999999999999999895e-06 -9.192000000000000517e-03 9.543600000000000694e-02 -1.802829999999999988e-01 -9.545599999999999918e-02 -9.164000000000000271e-03 -1.802420000000000133e-01 9.187000000000000721e-03 -9.544099999999999806e-02 -1.802709999999999868e-01 9.543899999999999606e-02 9.178999999999999659e-03 -1.802350000000000063e-01 -9.152000000000000413e-03 -9.544900000000000606e-02 1.802360000000000073e-01 -9.543400000000000494e-02 9.183000000000000190e-03 1.802610000000000046e-01 9.183000000000000190e-03 9.543699999999999406e-02 1.802559999999999996e-01 9.544300000000000006e-02 -9.194000000000000783e-03 1.802570000000000006e-01 9.173000000000000598e-03 -9.544600000000000306e-02 1.802580000000000016e-01 9.544800000000000506e-02 9.180999999999999925e-03 1.802519999999999956e-01 -9.164999999999999536e-03 9.544300000000000006e-02 1.802449999999999886e-01 -9.544500000000000206e-02 -9.180999999999999925e-03 1.802300000000000013e-01 9.161000000000000740e-03 9.544999999999999318e-02 -1.802439999999999876e-01 9.545399999999999718e-02 -9.150999999999999412e-03 -1.802330000000000043e-01 -9.183000000000000190e-03 -9.544500000000000206e-02 -1.802670000000000106e-01 -9.544700000000000406e-02 9.157000000000000209e-03 -1.802310000000000023e-01 -9.183000000000000190e-03 9.543600000000000694e-02 -1.802630000000000066e-01 -9.543799999999999506e-02 -9.183999999999999456e-03 -1.802650000000000086e-01 9.159999999999999740e-03 -9.544999999999999318e-02 -1.802429999999999866e-01 9.543799999999999506e-02 9.201000000000000845e-03 -1.802690000000000126e-01 -9.197000000000000314e-03 -9.543899999999999606e-02 1.802690000000000126e-01 -9.544600000000000306e-02 9.145999999999999616e-03 1.802340000000000053e-01 9.194000000000000783e-03 9.545199999999999518e-02 1.803029999999999911e-01 9.545199999999999518e-02 -9.171000000000000332e-03 1.802539999999999976e-01 9.171000000000000332e-03 -9.543999999999999706e-02 1.802489999999999926e-01 9.544199999999999906e-02 9.190999999999999517e-03 1.802789999999999948e-01 -9.185000000000000456e-03 9.544400000000000106e-02 1.802719999999999878e-01 -9.545399999999999718e-02 -9.180999999999999925e-03 1.802620000000000056e-01 9.157999999999999474e-03 9.545499999999999818e-02 -1.802509999999999946e-01 9.543300000000000394e-02 -9.195000000000000048e-03 -1.802499999999999936e-01 -9.164000000000000271e-03 -9.544199999999999906e-02 -1.802660000000000096e-01 -9.543600000000000694e-02 9.206999999999999906e-03 -1.803079999999999961e-01 -9.143199999999999938e-02 2.127979999999999872e-01 3.703999999999999654e-02 -2.127999999999999892e-01 -9.143400000000000138e-02 3.701800000000000229e-02 9.142500000000000626e-02 -2.127880000000000049e-01 3.704799999999999760e-02 2.127779999999999949e-01 9.142999999999999738e-02 3.704500000000000154e-02 -9.142400000000000526e-02 -2.127719999999999889e-01 -3.702799999999999842e-02 -2.127940000000000109e-01 9.142200000000000326e-02 -3.706099999999999672e-02 9.143600000000000338e-02 2.127920000000000089e-01 -3.701900000000000329e-02 2.127890000000000059e-01 -9.142999999999999738e-02 -3.702500000000000235e-02 9.143199999999999938e-02 -2.127600000000000047e-01 -3.699100000000000305e-02 2.127789999999999959e-01 9.141799999999999926e-02 -3.702799999999999842e-02 -9.142899999999999638e-02 2.127900000000000069e-01 -3.703800000000000148e-02 -2.127779999999999949e-01 -9.143600000000000338e-02 -3.703700000000000048e-02 9.143400000000000138e-02 2.128049999999999942e-01 3.704199999999999854e-02 2.127769999999999939e-01 -9.143099999999999838e-02 3.701800000000000229e-02 -9.143199999999999938e-02 -2.127799999999999969e-01 3.701999999999999735e-02 -2.127850000000000019e-01 9.143700000000000438e-02 3.702400000000000135e-02 -9.143600000000000338e-02 2.127930000000000099e-01 3.702300000000000035e-02 -2.127860000000000029e-01 -9.143500000000000238e-02 3.700200000000000017e-02 9.143099999999999838e-02 -2.127860000000000029e-01 3.702199999999999935e-02 2.127769999999999939e-01 9.142699999999999438e-02 3.703100000000000142e-02 -9.142799999999999538e-02 -2.127640000000000087e-01 -3.703399999999999748e-02 -2.127840000000000009e-01 9.142599999999999338e-02 -3.701200000000000323e-02 9.143900000000000639e-02 2.128029999999999922e-01 -3.703499999999999848e-02 2.128029999999999922e-01 -9.143199999999999938e-02 -3.703800000000000148e-02 9.142799999999999538e-02 -2.127749999999999919e-01 -3.701100000000000223e-02 2.127759999999999929e-01 9.143600000000000338e-02 -3.699100000000000305e-02 -9.143099999999999838e-02 2.127749999999999919e-01 -3.702899999999999942e-02 -2.127880000000000049e-01 -9.142300000000000426e-02 -3.703499999999999848e-02 9.143800000000000539e-02 2.127890000000000059e-01 3.704299999999999954e-02 2.127719999999999889e-01 -9.142999999999999738e-02 3.703499999999999848e-02 -9.142200000000000326e-02 -2.127769999999999939e-01 3.700900000000000023e-02 -2.127840000000000009e-01 9.143900000000000639e-02 3.703300000000000342e-02 -2.202379999999999893e-01 9.013999999999999443e-03 5.830799999999999872e-02 -9.025999999999999301e-03 -2.202580000000000093e-01 5.827299999999999841e-02 2.202409999999999923e-01 -9.017999999999999974e-03 5.827299999999999841e-02 9.053000000000000283e-03 2.202800000000000036e-01 5.828900000000000053e-02 -2.202610000000000123e-01 -9.044999999999999221e-03 -5.829600000000000060e-02 -9.036000000000000629e-03 2.202560000000000073e-01 -5.830300000000000066e-02 2.202459999999999973e-01 9.039999999999999425e-03 -5.827700000000000241e-02 9.076000000000000734e-03 -2.202870000000000106e-01 -5.827700000000000241e-02 2.202570000000000083e-01 -9.048000000000000487e-03 -5.829299999999999760e-02 9.051999999999999283e-03 2.202669999999999906e-01 -5.827500000000000041e-02 -2.202510000000000023e-01 9.044999999999999221e-03 -5.827399999999999941e-02 -9.057000000000000814e-03 -2.202739999999999976e-01 -5.828499999999999653e-02 2.202590000000000103e-01 9.055999999999999814e-03 5.829600000000000060e-02 9.043000000000000690e-03 -2.202449999999999963e-01 5.829999999999999766e-02 -2.202199999999999991e-01 -9.018999999999999240e-03 5.827899999999999747e-02 -9.081999999999999795e-03 2.202850000000000086e-01 5.827399999999999941e-02 -2.202550000000000063e-01 9.058000000000000079e-03 5.829100000000000253e-02 -9.065999999999999406e-03 -2.202629999999999866e-01 5.828699999999999853e-02 2.202409999999999923e-01 -9.025000000000000036e-03 5.827600000000000141e-02 9.037999999999999159e-03 2.202449999999999963e-01 5.827800000000000341e-02 -2.202520000000000033e-01 -9.039000000000000160e-03 -5.827500000000000041e-02 -9.048000000000000487e-03 2.202570000000000083e-01 -5.829899999999999666e-02 2.202359999999999873e-01 9.022999999999999771e-03 -5.826900000000000135e-02 9.034999999999999629e-03 -2.202590000000000103e-01 -5.826699999999999935e-02 2.202340000000000131e-01 -9.015999999999999709e-03 -5.830300000000000066e-02 9.063999999999999141e-03 2.202909999999999868e-01 -5.828400000000000247e-02 -2.202449999999999963e-01 9.044999999999999221e-03 -5.826599999999999835e-02 -9.024000000000000771e-03 -2.202459999999999973e-01 -5.829000000000000153e-02 2.202629999999999866e-01 9.062999999999999876e-03 5.829100000000000253e-02 9.034000000000000363e-03 -2.202540000000000053e-01 5.829499999999999960e-02 -2.202429999999999943e-01 -9.020000000000000240e-03 5.828300000000000147e-02 -9.015000000000000444e-03 2.202349999999999863e-01 5.827700000000000241e-02
-8.385999999999999358e-03 -4.113800000000000096e-02 7.447999999999999760e-03 4.817099999999999854e-02 1.195500000000000035e-02 -6.633899999999999519e-02 -7.317999999999999505e-02 4.475099999999999911e-02 4.026600000000000318e-02 6.966200000000000170e-02 -6.376600000000000323e-02 6.269900000000000473e-02 8.687999999999999542e-03 4.264300000000000035e-02 -3.345900000000000263e-02 1.445100000000000030e-02 8.453399999999999803e-02 -9.050800000000000511e-02 -2.014999999999999864e-03 2.882300000000000140e-02 -3.601499999999999840e-02 4.851000000000000277e-03 -2.825700000000000087e-02 7.075599999999999945e-02 -3.376599999999999741e-02 -2.290100000000000122e-02 -1.455500000000000023e-02 4.271799999999999903e-02 -3.061600000000000085e-02 -4.493199999999999972e-02 -1.051500000000000004e-02 -7.206100000000000005e-02 -2.003699999999999926e-02 3.656299999999999828e-02 4.827999999999999826e-03 4.582200000000000162e-02 -4.773899999999999672e-02 7.275000000000000216e-03 3.543000000000000142e-03 -4.689999999999999725e-02 1.619999999999999912e-02 -3.049999999999999933e-02 2.953400000000000122e-02 -9.226700000000000179e-02 4.581199999999999856e-02 2.895899999999999863e-02 -7.667000000000000204e-02 5.095899999999999735e-02 4.736400000000000332e-02 9.286000000000000851e-03 -1.922000000000000097e-03 -2.207800000000000040e-02 2.577099999999999877e-02 2.763099999999999931e-02 -1.079200000000000020e-01 -1.314399999999999943e-02 4.599999999999999922e-02 2.852800000000000127e-02 -8.075000000000000580e-03 -4.466200000000000031e-02 8.400499999999999634e-02 1.759300000000000100e-02 -3.049199999999999827e-02 -1.659700000000000064e-02 2.720999999999999894e-03 6.118200000000000027e-02 -1.935100000000000015e-02 3.762800000000000172e-02 1.500999999999999947e-03 4.194500000000000312e-02 1.557000000000000007e-03 -5.019999999999999506e-04 -1.598600000000000021e-02 -5.257900000000000074e-02 -3.087900000000000020e-02 2.851199999999999915e-02 4.501399999999999846e-02 -6.494999999999999905e-03 2.674999999999999861e-03 4.275199999999999834e-02 1.990099999999999855e-02 -4.499000000000000395e-03 -5.990999999999999798e-03 3.018099999999999949e-02 -3.821100000000000191e-02 4.140599999999999836e-02 1.064799999999999948e-02 2.461400000000000046e-02 4.182099999999999707e-02 1.876799999999999996e-02 4.254299999999999748e-02 4.295000000000000207e-03 -1.263000000000000017e-03 -3.108800000000000105e-02 7.557999999999999614e-03 1.881700000000000039e-02 -1.790500000000000078e-02 5.954999999999999877e-02 3.755399999999999711e-02 -5.975699999999999762e-02 -3.948000000000000120e-02 -7.299999999999999632e-04 -1.008860000000000035e-01 -7.649999999999999465e-04 -1.779599999999999932e-02 4.726500000000000146e-02 2.959399999999999878e-02 8.104000000000000092e-03 4.367800000000000155e-02 -6.158899999999999791e-02 -2.423499999999999960e-02 -3.644599999999999923e-02 -7.727999999999999627e-03 -4.502400000000000152e-02 5.207799999999999929e-02 1.508100000000000065e-02 -4.645999999999999956e-03 4.618900000000000089e-02 3.602299999999999947e-02 -2.200600000000000125e-02 9.544999999999999665e-03 -8.147500000000000575e-02 -2.526799999999999879e-02 2.244700000000000167e-02 -2.269099999999999936e-02 2.714999999999999965e-03 2.945400000000000101e-02 1.464700000000000030e-02 2.797499999999999987e-02 -6.128399999999999820e-02 -3.807499999999999774e-02 -2.106099999999999986e-02 -4.811300000000000299e-02 3.277599999999999958e-02 4.254200000000000342e-02 2.994899999999999993e-02 7.854800000000000670e-02 2.150699999999999834e-02 1.815299999999999900e-02 -6.901300000000000490e-02 -9.409000000000000696e-03 -3.305600000000000205e-02 -3.597600000000000103e-02 2.730099999999999888e-02 -9.964800000000000046e-02 -8.158600000000000574e-02 -2.084899999999999948e-02 9.987400000000000444e-02 -4.503100000000000158e-02 -1.723399999999999932e-02 1.146670000000000050e-01 1.100010000000000016e-01 1.948999999999999995e-03 -1.015979999999999939e-01 6.818200000000000649e-02 1.666899999999999979e-02 8.756700000000000594e-02 6.392799999999999871e-02 1.021999999999999905e-03 -5.813399999999999818e-02 7.823800000000000199e-02 8.319999999999999271e-03 -6.880899999999999517e-02 -7.402799999999999658e-02 -2.588000000000000023e-03 5.163899999999999740e-02 -8.077299999999999758e-02 2.481999999999999831e-03 -8.195800000000000307e-02 -3.385300000000000115e-02 -2.152600000000000000e-02 6.672699999999999465e-02 -4.513299999999999951e-02 9.632999999999999202e-03 4.856699999999999906e-02 7.108699999999999741e-02 2.021600000000000133e-02 -1.241809999999999997e-01 6.810000000000000081e-03 -1.611000000000000019e-03 9.770700000000000218e-02 2.289899999999999922e-02 -1.664399999999999907e-02 -1.131009999999999932e-01 6.565300000000000302e-02 1.864400000000000085e-02 -1.474229999999999985e-01 -3.111299999999999830e-02 -5.649999999999999641e-04 3.715000000000000246e-02 -6.874099999999999655e-02 -3.602000000000000167e-03 2.430300000000000168e-02 -6.408999999999999420e-02 3.657900000000000040e-02 3.279699999999999976e-02 -2.427599999999999897e-02 5.759000000000000230e-03 -4.746000000000000218e-02 -5.888100000000000278e-02 4.748999999999999749e-03 -2.431000000000000001e-03 2.189299999999999927e-02 -7.140999999999999778e-03 6.660399999999999654e-02 -3.425099999999999673e-02 5.537500000000000061e-02 -1.982199999999999934e-02 1.038200000000000060e-02 7.308499999999999719e-02 9.154999999999999943e-03 7.496400000000000285e-02 -6.456499999999999739e-02 2.571899999999999881e-02 4.356999999999999762e-03 1.302200000000000059e-02 9.282600000000000573e-02 1.765600000000000155e-02 3.465200000000000224e-02 2.807000000000000120e-02 1.164030000000000065e-01 4.398000000000000000e-03 -2.847200000000000078e-02 -1.018000000000000025e-03 -1.583599999999999938e-02 -1.036999999999999944e-03 -2.150099999999999928e-02 -6.147999999999999819e-03 6.365899999999999337e-02 4.188800000000000162e-02 -8.628000000000000252e-03 4.414699999999999874e-02 -5.038000000000000117e-02 -3.364500000000000129e-02 -4.162099999999999828e-02 3.216999999999999721e-02 1.223699999999999961e-02 -2.556800000000000045e-02 1.251999999999999988e-02 -2.316700000000000009e-02 -4.703399999999999942e-02 -1.421799999999999974e-02 8.855000000000000024e-03 7.154999999999999902e-03 -3.908899999999999875e-02 -1.390500000000000069e-02 5.503299999999999859e-02 -6.070600000000000301e-02 -4.182999999999999913e-02 4.600599999999999828e-02 2.604000000000000065e-02 -3.112000000000000183e-03 -6.329300000000000204e-02 -2.415000000000000133e-02 3.054300000000000070e-02 3.314700000000000285e-02 4.290000000000000193e-04 -2.481900000000000078e-02 1.097670000000000035e-01 -3.566500000000000226e-02 -2.818500000000000172e-02 -9.117000000000000104e-03 -7.354199999999999626e-02 4.087000000000000355e-03 -1.459999999999999981e-04 -4.321200000000000041e-02 -6.108999999999999847e-03 2.859400000000000136e-02 3.123799999999999841e-02 -1.531800000000000002e-02 -5.736700000000000133e-02 -3.027000000000000177e-03 -1.658300000000000052e-02 3.292099999999999888e-02 5.550000000000000246e-03 8.595000000000000209e-03 -9.634999999999999468e-03 3.165500000000000258e-02 -6.813999999999999745e-03 1.238999999999999997e-02 1.702499999999999847e-02 -3.667999999999999733e-02 2.255199999999999913e-02 -1.450899999999999933e-02 -1.268799999999999963e-02 -7.462399999999999589e-02 -3.115999999999999846e-03 1.585000000000000037e-03 -3.905200000000000338e-02 1.108169999999999988e-01 -1.253930000000000045e-01 -9.337099999999999567e-02 -3.109400000000000011e-02 -1.752579999999999971e-01 -1.965999999999999866e-03 -4.593200000000000061e-02 -2.359660000000000091e-01 8.902899999999999703e-02 -2.240999999999999936e-03 -1.413159999999999972e-01 -9.133999999999999758e-03 -6.509199999999999708e-02 1.966350000000000042e-01 -7.449300000000000366e-02 -3.211399999999999672e-02 1.652629999999999932e-01 4.390000000000000152e-02 9.486500000000000488e-02 2.153720000000000079e-01 1.054640000000000022e-01 3.131599999999999662e-02 2.516209999999999836e-01 1.753400000000000097e-02 -1.056259999999999977e-01 1.131800000000000028e-01 1.021080000000000043e-01 6.622400000000000508e-02 1.491669999999999940e-01 -1.590600000000000000e-02 1.348000000000000032e-01 2.068869999999999876e-01 -5.911000000000000282e-02 -5.553500000000000103e-02 1.631759999999999877e-01 8.241400000000000114e-02 8.246399999999999564e-02 -2.144179999999999975e-01 1.096739999999999937e-01 5.454599999999999727e-02 -1.531220000000000081e-01 3.067100000000000035e-02 -1.213010000000000060e-01 -1.266019999999999923e-01 -1.394799999999999929e-01 1.538300000000000084e-02 -1.470019999999999938e-01 -5.503000000000000079e-03 5.793700000000000239e-02 -1.834969999999999934e-01 -6.727199999999999847e-02 4.327000000000000290e-02 -2.045379999999999976e-01 5.413199999999999956e-02 -1.043580000000000063e-01 -1.166839999999999961e-01 2.607299999999999895e-02 2.432499999999999940e-02 -1.311620000000000008e-01 2.399400000000000144e-02 -5.330499999999999822e-02 1.727289999999999937e-01 -7.670899999999999941e-02 2.051299999999999998e-02 1.959500000000000131e-01 -1.823200000000000168e-02 6.422600000000000531e-02 1.317139999999999977e-01 7.938800000000000023e-02 8.866000000000000617e-03 1.968459999999999932e-01 2.622000000000000199e-03 -8.331299999999999817e-02 2.389400000000000135e-01 1.078380000000000033e-01 1.546200000000000005e-02 1.038130000000000025e-01 -1.256499999999999978e-02 9.167400000000000548e-02 1.335349999999999870e-01 -1.072609999999999952e-01 4.680499999999999938e-02 2.012869999999999937e-01 2.552199999999999955e-02 1.540940000000000087e-01 -2.253130000000000133e-01 1.051020000000000010e-01 -6.505600000000000271e-02 -1.323759999999999937e-01 1.742199999999999999e-02 -8.829199999999999549e-02 -1.931200000000000139e-01 -9.120100000000000429e-02 3.345299999999999663e-02 -2.858840000000000270e-01 -1.183899999999999952e-01 2.775630000000000042e-01 7.283599999999999797e-02 -2.554150000000000031e-01 -8.200300000000000644e-02 5.122899999999999676e-02 1.590999999999999914e-01 -1.319730000000000070e-01 2.448600000000000082e-02 2.001570000000000016e-01 8.356800000000000339e-02 1.177100000000000021e-02 -1.433669999999999944e-01 -1.742209999999999870e-01 -3.266700000000000159e-02 -9.376099999999999712e-02 4.819600000000000273e-02 -1.296699999999999936e-02 9.068800000000000472e-02 1.391360000000000097e-01 6.279999999999999775e-04 1.973100000000000132e-01 -2.749300000000000008e-02 -4.645799999999999930e-02 1.080149999999999999e-01 -2.585200000000000276e-01 -3.848300000000000332e-02 2.607530000000000125e-01 5.015800000000000120e-02 -5.608599999999999697e-02 -5.575399999999999801e-02 1.544790000000000052e-01 1.641400000000000151e-02 -2.227899999999999880e-01 -6.914299999999999613e-02 -5.843099999999999683e-02 1.485309999999999964e-01 1.690959999999999963e-01 1.703599999999999906e-02 1.419469999999999898e-01 -4.449700000000000183e-02 -3.603999999999999999e-03 -9.697300000000000364e-02 -2.253660000000000108e-01 6.306699999999999806e-02 -2.226130000000000053e-01 6.029600000000000237e-02 5.692500000000000338e-02 -6.226700000000000290e-02 1.817809999999999981e-01 8.714399999999999924e-02 -2.688420000000000254e-01 -1.048410000000000036e-01 5.988700000000000273e-02 1.488279999999999881e-01 -2.125039999999999984e-01 -1.818200000000000024e-02 1.624819999999999875e-01 5.376600000000000129e-02 1.726300000000000057e-02 -6.013600000000000195e-02 -1.476770000000000027e-01 -1.039099999999999920e-02 -2.585000000000000075e-01 6.062800000000000133e-02 -6.652800000000000380e-02 4.792400000000000132e-02 2.206289999999999918e-01 -7.339400000000000091e-02 1.999319999999999986e-01 -7.328199999999999992e-02 -3.506900000000000295e-02 1.303529999999999966e-01 -2.079020000000000035e-01 -4.352600000000000219e-02 2.272079999999999933e-01 9.982499999999999707e-02 -1.701599999999999988e-02 -1.070350000000000051e-01 2.181250000000000133e-01 -6.260300000000000586e-02 -2.534739999999999771e-01 -7.915300000000000114e-02 -4.071999999999999925e-02 4.587200000000000305e-02 2.125869999999999982e-01 3.458100000000000063e-02 9.772699999999999443e-02 -9.216000000000000580e-02 4.883300000000000141e-02 -1.040409999999999946e-01 -7.162300000000000610e-02 -4.480800000000000061e-02 -2.559560000000000168e-01 7.260600000000000387e-02 5.137900000000000106e-02 -2.165189999999999892e-01 2.655300000000000021e-02 -2.399199999999999944e-02 -1.021859999999999991e-01 -2.521920000000000273e-01 5.741199999999999776e-02 2.228769999999999918e-01 -1.258399999999999970e-02 3.921999999999999792e-02 2.690899999999999889e-02 1.579740000000000033e-01 1.083319999999999977e-01 -2.184270000000000100e-01 -5.175400000000000139e-02 -1.931400000000000131e-02 -4.554799999999999821e-02 1.532020000000000048e-01 -6.041799999999999948e-02 2.201770000000000116e-01 -8.267900000000000249e-02 -2.559700000000000170e-02 6.365800000000000625e-02 -2.492369999999999863e-01 -9.278799999999999548e-02 1.300850000000000062e-01 -1.386300000000000032e-02 -5.909600000000000269e-02 5.328700000000000103e-02 1.129529999999999978e-01 -6.414100000000000357e-02 -2.286900000000000044e-01 -4.024199999999999999e-02 -8.978600000000000469e-02 -5.265500000000000042e-02 -2.241509999999999891e-01 -2.049600000000000033e-02 1.995139999999999969e-01 5.011800000000000282e-02 2.219899999999999998e-02 -6.400999999999999746e-02 -1.950439999999999952e-01 1.856899999999999870e-02 -2.111159999999999981e-01 -1.206400000000000007e-02 3.490900000000000253e-02 4.180600000000000288e-02 2.385480000000000100e-01 9.779300000000000492e-02 -2.543659999999999810e-01 -6.190500000000000169e-02 1.826300000000000145e-02 -9.617900000000000060e-02 -1.683640000000000136e-01 3.305500000000000105e-02 2.487550000000000039e-01 -1.167000000000000069e-03 4.880999999999999922e-02 2.263099999999999834e-02 1.925010000000000054e-01 6.017900000000000332e-02 -2.105889999999999984e-01 -1.807900000000000132e-02 9.206000000000000641e-03 -7.432000000000000238e-03 2.013189999999999980e-01 -7.582600000000000451e-02 2.360589999999999911e-01 2.194999999999999903e-03 -2.636799999999999908e-02 -3.471300000000000080e-02 -2.718690000000000273e-01 -1.081379999999999980e-01 2.527800000000000047e-01 -3.016999999999999890e-02 -7.377899999999999736e-02 4.152900000000000341e-02 1.873690000000000078e-01 -6.596699999999999786e-02 -2.087209999999999899e-01 4.950999999999999672e-03 -2.657500000000000140e-02 6.497100000000000097e-02 -9.826400000000000412e-02 -3.146700000000000191e-02 2.193249999999999922e-01 4.778600000000000209e-02 8.058700000000000585e-02 -7.981000000000000247e-03 -1.251939999999999997e-01 4.863699999999999968e-02 -1.321299999999999975e-01 1.660800000000000123e-02 5.900899999999999895e-02 -1.066129999999999994e-01 2.922870000000000190e-01 9.598299999999999887e-02