0.000000000000000000e+00 2.084080000000000155e+00 0.000000000000000000e+00 1.804859999999999909e+00 1.042040000000000077e+00 0.000000000000000000e+00 0.000000000000000000e+00 0.000000000000000000e+00 1.927319999999999922e+00 0.000000000000000000e+00 0.000000000000000000e+00 0.000000000000000000e+00
2.050000000000000173e-03 2.089090000000000114e+00 5.700000000000000205e-03 1.807539999999999925e+00 1.034880000000000022e+00 8.619999999999999191e-03 1.869999999999999917e-03 5.190000000000000169e-03 1.923010000000000108e+00 1.801560000000000050e+00 3.124589999999999979e+00 3.849619999999999820e+00
4.150000000000000043e-03 2.094069999999999876e+00 1.129999999999999928e-02 1.810270000000000046e+00 1.027779999999999916e+00 1.711000000000000021e-02 3.700000000000000164e-03 1.030000000000000013e-02 1.918779999999999930e+00 1.798229999999999995e+00 3.123089999999999922e+00 3.844689999999999941e+00
1.754000000000000004e-02 2.124620000000000175e+00 4.299000000000000044e-02 1.827399999999999913e+00 9.850600000000000467e-01 6.636000000000000232e-02 1.429000000000000062e-02 3.998000000000000165e-02 1.895499999999999963e+00 1.777640000000000109e+00 3.114329999999999821e+00 3.815819999999999990e+00
2.019999999999999921e-02 2.129690000000000083e+00 4.734000000000000014e-02 1.830680000000000085e+00 9.781400000000000095e-01 7.359999999999999876e-02 1.575000000000000011e-02 4.440000000000000197e-02 1.892449999999999966e+00 1.773940000000000072e+00 3.113039999999999807e+00 3.811549999999999994e+00
2.644000000000000170e-02 2.139470000000000205e+00 5.419000000000000206e-02 1.838100000000000067e+00 9.649400000000000199e-01 8.605000000000000149e-02 1.795000000000000068e-02 5.219000000000000028e-02 1.887729999999999908e+00 1.766000000000000014e+00 3.110860000000000181e+00 3.804250000000000131e+00
3.014000000000000012e-02 2.144120000000000026e+00 5.657000000000000223e-02 1.842379999999999907e+00 9.586999999999999966e-01 9.110999999999999654e-02 1.862000000000000113e-02 5.548999999999999766e-02 1.886149999999999993e+00 1.761670000000000069e+00 3.109999999999999876e+00 3.801309999999999967e+00
3.448999999999999982e-02 2.148420000000000218e+00 5.788000000000000089e-02 1.847269999999999968e+00 9.529199999999999893e-01 9.496000000000000274e-02 1.880000000000000074e-02 5.818000000000000255e-02 1.885280000000000067e+00 1.756950000000000012e+00 3.109389999999999876e+00 3.799160000000000093e+00
3.957999999999999713e-02 2.152330000000000076e+00 5.807999999999999968e-02 1.852870000000000017e+00 9.476200000000000179e-01 9.754000000000000170e-02 1.846000000000000071e-02 6.024000000000000188e-02 1.885170000000000012e+00 1.751770000000000049e+00 3.109049999999999869e+00 3.797820000000000196e+00
4.551999999999999796e-02 2.155829999999999913e+00 5.713000000000000023e-02 1.859290000000000109e+00 9.428299999999999459e-01 9.879999999999999893e-02 1.754999999999999963e-02 6.162999999999999728e-02 1.885820000000000052e+00 1.746040000000000036e+00 3.109010000000000051e+00 3.797349999999999781e+00
5.244000000000000050e-02 2.158859999999999779e+00 5.498000000000000109e-02 1.866649999999999920e+00 9.385799999999999699e-01 9.869999999999999607e-02 1.600999999999999993e-02 6.233000000000000346e-02 1.887240000000000029e+00 1.739659999999999984e+00 3.109269999999999978e+00 3.797759999999999803e+00
6.047000000000000292e-02 2.161350000000000104e+00 5.160000000000000003e-02 1.875070000000000014e+00 9.349100000000000188e-01 9.718999999999999861e-02 1.379000000000000017e-02 6.232000000000000040e-02 1.889450000000000074e+00 1.732529999999999903e+00 3.109859999999999847e+00 3.799100000000000144e+00
6.973000000000000032e-02 2.163229999999999986e+00 4.698999999999999705e-02 1.884670000000000067e+00 9.318899999999999961e-01 9.427000000000000657e-02 1.085000000000000027e-02 6.158000000000000279e-02 1.892419999999999991e+00 1.724560000000000093e+00 3.110799999999999788e+00 3.801379999999999981e+00
8.032999999999999863e-02 2.164400000000000102e+00 4.118999999999999745e-02 1.895529999999999937e+00 9.295999999999999819e-01 8.994000000000000605e-02 7.150000000000000105e-03 6.010000000000000064e-02 1.896120000000000028e+00 1.715670000000000028e+00 3.112099999999999866e+00 3.804609999999999825e+00
2.198900000000000021e-01 2.151009999999999867e+00 3.827580000000000204e+00 2.036129999999999995e+00 9.352399999999999602e-01 9.520000000000000684e-03 3.565360000000000085e+00 1.884999999999999870e-02 1.945910000000000029e+00 3.406060000000000088e+00 1.051999999999999984e-02 3.854109999999999925e+00
3.461299999999999932e-01 2.002479999999999816e+00 3.840380000000000127e+00 2.115240000000000009e+00 1.076079999999999925e+00 3.846119999999999983e+00 3.500849999999999795e+00 7.559999999999999880e-03 1.928879999999999928e+00 3.335539999999999949e+00 2.002999999999999919e-02 1.061999999999999923e-02
4.032600000000000073e-01 1.870640000000000081e+00 3.851700000000000124e+00 2.172060000000000102e+00 1.207969999999999988e+00 3.851589999999999847e+00 3.441009999999999902e+00 1.225000000000000047e-02 1.926870000000000083e+00 3.308440000000000047e+00 1.764999999999999902e-02 3.220000000000000206e-03
4.469099999999999739e-01 1.777109999999999967e+00 3.854519999999999946e+00 2.243050000000000210e+00 1.317460000000000075e+00 3.853670000000000151e+00 3.372250000000000192e+00 1.190000000000000085e-02 1.927499999999999991e+00 3.285480000000000178e+00 9.839999999999999789e-03 4.499999999999999877e-04
4.866500000000000270e-01 1.729729999999999990e+00 3.299999999999999982e-04 2.291069999999999940e+00 1.384060000000000068e+00 3.854270000000000085e+00 3.312120000000000175e+00 7.640000000000000090e-03 1.927419999999999911e+00 3.271640000000000104e+00 2.340000000000000066e-03 3.854610000000000092e+00
5.180900000000000505e-01 1.698509999999999964e+00 3.400000000000000244e-04 2.322119999999999962e+00 1.427519999999999900e+00 3.854449999999999932e+00 3.263739999999999863e+00 2.769999999999999893e-03 1.927289999999999948e+00 1.459719999999999906e+00 3.124769999999999825e+00 3.854579999999999895e+00
5.587800000000000544e-01 1.872719999999999940e+00 3.854459999999999997e+00 2.357470000000000176e+00 1.238040000000000029e+00 6.400000000000000524e-04 3.117869999999999919e+00 5.559999999999999838e-03 1.927040000000000086e+00 3.299539999999999917e+00 4.899999999999999842e-03 3.854550000000000143e+00
6.588699999999999557e-01 1.573639999999999928e+00 2.710000000000000169e-03 2.479800000000000004e+00 1.611350000000000060e+00 3.851739999999999942e+00 1.237270000000000092e+00 3.100810000000000066e+00 1.926919999999999966e+00 1.421240000000000059e+00 3.109300000000000175e+00 2.999999999999999737e-04
7.190499999999999670e-01 1.501379999999999937e+00 5.519999999999999733e-03 2.545960000000000001e+00 1.704360000000000097e+00 3.849060000000000148e+00 1.139809999999999990e+00 3.079860000000000042e+00 1.927100000000000035e+00 1.406770000000000076e+00 3.109410000000000007e+00 1.399999999999999877e-04
3.602799999999999891e-01 1.670190000000000063e+00 1.034999999999999983e-02 2.158360000000000056e+00 1.418330000000000091e+00 3.845870000000000122e+00 3.417800000000000171e+00 2.750999999999999973e-02 1.928350000000000009e+00 3.348450000000000149e+00 5.049999999999999802e-03 3.853330000000000144e+00
4.913899999999999935e-01 1.486869999999999914e+00 3.948000000000000120e-02 2.208950000000000191e+00 1.529190000000000049e+00 3.817899999999999849e+00 3.270820000000000061e+00 8.483999999999999875e-02 1.927910000000000013e+00 3.331059999999999910e+00 1.263000000000000060e-02 3.852970000000000006e+00
4.894000000000000017e-01 1.504499999999999948e+00 3.835280000000000022e+00 2.386280000000000179e+00 1.616950000000000109e+00 2.001000000000000001e-02 1.428520000000000012e+00 3.098730000000000206e+00 1.927650000000000086e+00 3.262020000000000142e+00 1.603999999999999870e-02 3.854150000000000187e+00
4.415899999999999825e-01 1.449859999999999927e+00 3.780889999999999862e+00 2.395129999999999981e+00 1.595239999999999991e+00 7.539999999999999480e-02 1.448939999999999895e+00 3.077139999999999986e+00 1.928029999999999911e+00 3.271300000000000097e+00 6.508999999999999508e-02 3.853460000000000107e+00
4.403400000000000092e-01 1.444870000000000099e+00 3.772479999999999833e+00 2.400150000000000006e+00 1.589739999999999931e+00 8.366999999999999438e-02 1.453440000000000065e+00 3.077669999999999906e+00 1.928120000000000056e+00 3.267160000000000064e+00 7.006999999999999340e-02 3.853479999999999794e+00
6.159700000000000175e-01 1.570079999999999920e+00 1.020599999999999979e-01 2.337909999999999933e+00 1.583099999999999952e+00 3.773489999999999789e+00 1.405850000000000044e+00 3.110399999999999832e+00 1.840500000000000025e+00 1.429349999999999898e+00 3.120429999999999815e+00 3.300000000000000155e-02
5.502099999999999769e-01 1.557269999999999932e+00 1.272199999999999998e-01 2.330259999999999998e+00 1.586070000000000091e+00 3.773810000000000109e+00 1.387529999999999930e+00 3.077100000000000168e+00 1.727980000000000071e+00 3.280139999999999834e+00 1.591000000000000053e-02 7.657999999999999530e-02
5.719699999999999784e-01 1.570200000000000040e+00 8.787000000000000366e-02 2.323770000000000113e+00 1.463179999999999925e+00 2.622000000000000025e-02 3.315129999999999910e+00 1.592000000000000082e-01 1.683049999999999935e+00 1.406179999999999986e+00 3.092839999999999812e+00 6.518000000000000183e-02
