-1.230432051000000016e+01
-1.230300519000000037e+01
-1.229919714999999947e+01
-1.222945084999999921e+01
-1.221305923000000071e+01
-1.218296437000000054e+01
-1.217088880999999922e+01
-1.216341307000000072e+01
-1.216153721999999959e+01
-1.216617001999999914e+01
-1.217811872999999956e+01
-1.219802473999999926e+01
-1.222634670000000057e+01
-1.226322434000000072e+01
-1.271493002000000061e+01
-1.323701216000000080e+01
-1.357431532999999924e+01
-1.374804199999999987e+01
-1.380542535999999920e+01
-1.381541649999999954e+01
-1.331355334000000035e+01
-1.357651553000000000e+01
-1.334747514000000024e+01
-1.341324196000000057e+01
-1.347827994999999923e+01
-1.375760260999999929e+01
-1.347206682999999927e+01
-1.343488950999999965e+01
-1.366248286000000078e+01
-1.341126788999999953e+01
-1.321407042000000054e+01
