4.389999999999999914e-04 -2.539999999999999940e-04 0.000000000000000000e+00 -4.389999999999999914e-04 2.539999999999999940e-04 0.000000000000000000e+00 0.000000000000000000e+00 0.000000000000000000e+00 0.000000000000000000e+00 0.000000000000000000e+00 0.000000000000000000e+00 0.000000000000000000e+00
3.485900000000000110e-02 -2.537100000000000119e-02 -7.788799999999999890e-02 3.048899999999999874e-02 3.887199999999999683e-02 -9.023499999999999577e-02 -3.186900000000000149e-02 -4.818599999999999967e-02 5.723199999999999815e-02 -3.867500000000000104e-02 3.622100000000000319e-02 1.149919999999999970e-01
6.826300000000000423e-02 -5.064799999999999858e-02 -1.554079999999999906e-01 6.065999999999999864e-02 7.737099999999999533e-02 -1.816399999999999959e-01 -6.295800000000000007e-02 -9.590799999999999326e-02 1.183170000000000055e-01 -7.206899999999999418e-02 7.231500000000000428e-02 2.272520000000000095e-01
2.657390000000000030e-01 -2.060819999999999874e-01 -5.985260000000000025e-01 2.440140000000000087e-01 2.861480000000000135e-01 -6.967360000000000220e-01 -2.452110000000000123e-01 -3.628330000000000166e-01 4.318980000000000041e-01 -2.642200000000000104e-01 2.760920000000000041e-01 8.825030000000000374e-01
3.006159999999999943e-01 -2.328610000000000124e-01 -6.594529999999999559e-01 2.780030000000000001e-01 3.176610000000000267e-01 -7.697119999999999518e-01 -2.743229999999999835e-01 -3.994380000000000153e-01 4.698260000000000214e-01 -3.010909999999999975e-01 3.068330000000000224e-01 9.781269999999999687e-01
3.734060000000000157e-01 -2.909079999999999999e-01 -7.605800000000000338e-01 3.477810000000000068e-01 3.832610000000000183e-01 -8.965710000000000068e-01 -3.289119999999999822e-01 -4.625070000000000014e-01 5.273740000000000094e-01 -3.824270000000000169e-01 3.626670000000000171e-01 1.141145999999999994e+00
4.131489999999999885e-01 -3.206330000000000013e-01 -7.974980000000000402e-01 3.848710000000000186e-01 4.157109999999999972e-01 -9.448029999999999484e-01 -3.547679999999999723e-01 -4.873370000000000202e-01 5.442000000000000171e-01 -4.310010000000000230e-01 3.880870000000000153e-01 1.208080000000000043e+00
4.551279999999999770e-01 -3.523879999999999790e-01 -8.215970000000000217e-01 4.228190000000000004e-01 4.478380000000000138e-01 -9.796820000000000528e-01 -3.782449999999999979e-01 -5.063990000000000435e-01 5.522770000000000179e-01 -4.857000000000000206e-01 4.096020000000000216e-01 1.256110999999999978e+00
4.996979999999999755e-01 -3.863340000000000107e-01 -8.313719999999999999e-01 4.630980000000000096e-01 4.795429999999999970e-01 -9.994560000000000111e-01 -3.995239999999999903e-01 -5.191879999999999828e-01 5.505419999999999758e-01 -5.472839999999999927e-01 4.278939999999999966e-01 1.286275999999999975e+00
5.457589999999999941e-01 -4.233729999999999993e-01 -8.270199999999999774e-01 5.055730000000000501e-01 5.106340000000000323e-01 -1.003559000000000090e+00 -4.185960000000000236e-01 -5.254670000000000174e-01 5.384569999999999634e-01 -6.176199999999999468e-01 4.436240000000000183e-01 1.298847000000000085e+00
5.921309999999999629e-01 -4.640770000000000173e-01 -8.071599999999999886e-01 5.460909999999999931e-01 5.432059999999999667e-01 -9.918310000000000182e-01 -4.345300000000000273e-01 -5.252790000000000514e-01 5.152759999999999563e-01 -6.926630000000000287e-01 4.560290000000000177e-01 1.292278999999999956e+00
6.404459999999999598e-01 -5.090069999999999872e-01 -7.729009999999999492e-01 5.891170000000000018e-01 5.747910000000000519e-01 -9.637649999999999828e-01 -4.486499999999999932e-01 -5.177509999999999613e-01 4.814809999999999923e-01 -7.741550000000000376e-01 4.643669999999999742e-01 1.264982999999999969e+00
6.895170000000000465e-01 -5.597100000000000408e-01 -7.232030000000000403e-01 6.325570000000000359e-01 6.070459999999999745e-01 -9.189889999999999448e-01 -4.602840000000000265e-01 -5.031409999999999494e-01 4.366110000000000269e-01 -8.608099999999999641e-01 4.687540000000000040e-01 1.216987999999999959e+00
7.379860000000000309e-01 -6.169689999999999896e-01 -6.590230000000000254e-01 6.734430000000000138e-01 6.416779999999999706e-01 -8.581250000000000266e-01 -4.703100000000000058e-01 -4.810329999999999884e-01 3.821149999999999824e-01 -9.456099999999999506e-01 4.694030000000000147e-01 1.148941999999999908e+00
5.673369999999999802e-01 -1.569283999999999901e+00 1.592079999999999884e-01 2.132469999999999921e-01 1.471295000000000019e+00 6.459000000000000331e-03 -6.105460000000000331e-01 -5.256999999999999867e-02 -2.123329999999999940e-01 -1.641039999999999999e-01 1.594540000000000124e-01 3.340900000000000120e-02
1.969160000000000077e-01 -1.400134999999999907e+00 1.499999999999999944e-01 5.700899999999999718e-02 1.356591000000000102e+00 1.132549999999999946e-01 -7.288280000000000314e-01 5.533199999999999924e-02 2.204000000000000056e-02 4.714619999999999922e-01 -2.053299999999999917e-02 -2.860840000000000050e-01
2.565060000000000118e-01 -5.766580000000000039e-01 4.079100000000000087e-02 3.817780000000000062e-01 7.797009999999999774e-01 3.874299999999999966e-02 -6.628399999999999848e-01 3.373999999999999829e-03 1.443200000000000038e-02 1.948300000000000032e-02 -2.073810000000000098e-01 -9.279099999999999848e-02
2.107169999999999876e-01 -1.794459999999999944e-01 4.898999999999999709e-03 1.740190000000000070e-01 4.867310000000000247e-01 9.953000000000000042e-03 -3.786689999999999778e-01 -4.011599999999999888e-02 -1.391000000000000092e-03 -9.292999999999999178e-03 -2.689280000000000004e-01 -1.357399999999999926e-02
-8.748999999999999833e-03 -1.946769999999999889e-01 -2.033999999999999784e-03 -6.197300000000000031e-02 3.317459999999999853e-01 2.356000000000000021e-03 -9.382200000000000262e-02 -4.117799999999999933e-02 -1.221999999999999996e-03 1.620270000000000044e-01 -9.488000000000000600e-02 8.530000000000000256e-04
-1.988070000000000115e-01 -2.540720000000000200e-01 -2.759000000000000168e-03 -1.788869999999999905e-01 2.352499999999999869e-01 6.740000000000000114e-04 1.143710000000000004e-01 -2.137299999999999964e-02 2.420000000000000005e-04 2.610919999999999908e-01 4.018800000000000150e-02 1.923000000000000013e-03
-1.536804999999999977e+00 -2.045685000000000198e+00 -3.609999999999999928e-04 -1.616368000000000027e+00 2.242478999999999889e+00 -5.220999999999999946e-03 1.031185999999999936e+00 -5.995999999999999594e-03 3.266999999999999939e-03 2.118977999999999806e+00 -1.934190000000000076e-01 2.200000000000000133e-03
-9.722150000000000514e-01 -7.629650000000000043e-01 -1.563499999999999959e-02 -1.129150000000000098e+00 5.103800000000000003e-02 1.980000000000000163e-02 9.799130000000000340e-01 1.139980000000000021e-01 4.500999999999999793e-03 1.120632000000000073e+00 6.001600000000000268e-01 -7.732000000000000157e-03
-1.303037000000000001e+00 -8.438029999999999697e-01 -3.564799999999999913e-02 -1.447046999999999972e+00 1.785180000000000100e-01 3.511800000000000338e-02 1.461780000000000079e+00 2.128329999999999944e-01 3.144000000000000093e-03 1.289549999999999974e+00 4.593180000000000041e-01 -2.516000000000000007e-03
1.602014999999999967e+00 7.585920000000000440e-01 -7.184100000000000208e-02 1.596300000000000052e+00 -4.879800000000000249e-01 4.725499999999999839e-02 -4.706449999999999800e-01 -1.677309999999999912e-01 -1.121100000000000048e-02 -2.727180999999999855e+00 -1.070529999999999954e-01 3.598900000000000016e-02
6.404009999999999980e-01 1.152431999999999901e+00 -2.332639999999999991e-01 2.067317000000000071e+00 -1.251319999999999932e-01 1.988229999999999997e-01 2.652100000000000013e-01 -4.659889999999999866e-01 -1.296899999999999963e-02 -2.971391999999999811e+00 -5.604019999999999557e-01 4.883599999999999747e-02
1.345601999999999965e+00 3.848230000000000262e-01 1.121790000000000009e-01 -7.032209999999999850e-01 1.036549999999999971e-01 -1.271130000000000038e-01 9.960299999999999709e-02 1.798800000000000121e-01 -2.464000000000000044e-03 -7.471379999999999688e-01 -6.647570000000000423e-01 1.719899999999999901e-02
2.558438999999999908e+00 1.572291000000000105e+00 3.520159999999999956e-01 -1.200428000000000051e+00 6.906999999999999806e-01 -4.539750000000000174e-01 2.553000000000000061e-02 4.373130000000000073e-01 4.031999999999999994e-03 -1.383286999999999933e+00 -2.703670999999999935e+00 9.702600000000000113e-02
2.620700999999999947e+00 1.668609000000000009e+00 3.885649999999999937e-01 -1.338516000000000039e+00 8.074470000000000258e-01 -5.010559999999999459e-01 -1.579099999999999948e-02 4.459879999999999955e-01 4.407000000000000327e-03 -1.266564999999999941e+00 -2.930086000000000190e+00 1.062209999999999960e-01
-1.284950999999999954e+00 -3.925640000000000240e-01 -6.180780000000000163e-01 6.182429999999999870e-01 -1.193170000000000064e-01 5.149820000000000508e-01 1.232410000000000033e-01 1.335240000000000038e-01 9.123219999999999663e-01 5.407819999999999849e-01 3.781169999999999809e-01 -8.314390000000000391e-01
1.393600000000000047e-02 1.142009999999999970e-01 -7.389639999999999542e-01 5.943570000000000242e-01 -1.581160000000000065e-01 5.165689999999999449e-01 4.156020000000000270e-01 3.690539999999999932e-01 2.469659000000000049e+00 -1.023091999999999890e+00 -3.262820000000000165e-01 -2.263100999999999807e+00
-9.599100000000000410e-01 -8.576200000000000490e-02 -7.401560000000000361e-01 -5.541999999999999704e-02 4.897960000000000091e-01 -4.214999999999999858e-01 -4.690360000000000085e-01 -1.035757000000000039e+00 3.195492000000000221e+00 1.482618999999999909e+00 6.365450000000000275e-01 -2.029457999999999984e+00
