-1.400200000000000056e-01 0.000000000000000000e+00 4.496089999999999698e+00 1.856289999999999996e+00 0.000000000000000000e+00 1.795900000000000052e+00 6.013580000000000148e+00 1.883450000000000069e+00 4.496089999999999698e+00 8.009890000000000398e+00 1.883450000000000069e+00 1.795900000000000052e+00 1.051890000000000036e+01 0.000000000000000000e+00 1.832869999999999999e+00 8.522579999999999600e+00 0.000000000000000000e+00 4.533050000000000246e+00 4.365300000000000402e+00 1.883450000000000069e+00 1.832869999999999999e+00 2.368980000000000086e+00 1.883450000000000069e+00 4.533050000000000246e+00 4.680000000000000132e-03 0.000000000000000000e+00 2.341590000000000060e+00 1.625439999999999996e+00 0.000000000000000000e+00 2.980999999999999969e-02 6.158280000000000420e+00 1.883450000000000069e+00 2.341590000000000060e+00 7.779040000000000177e+00 1.883450000000000069e+00 2.980999999999999969e-02 1.037419000000000047e+01 0.000000000000000000e+00 3.987369999999999859e+00 8.753439999999999444e+00 0.000000000000000000e+00 6.299140000000000406e+00 4.220589999999999620e+00 1.883450000000000069e+00 3.987369999999999859e+00 2.599839999999999929e+00 1.883450000000000069e+00 6.299140000000000406e+00 3.366999999999999993e-01 1.883450000000000069e+00 4.472039999999999793e+00 2.240679999999999783e+00 1.883450000000000069e+00 2.199310000000000098e+00 6.490300000000000402e+00 0.000000000000000000e+00 4.472039999999999793e+00 8.394280000000000186e+00 0.000000000000000000e+00 2.199310000000000098e+00 1.004217000000000048e+01 1.883450000000000069e+00 1.856919999999999904e+00 8.138189999999999813e+00 1.883450000000000069e+00 4.129640000000000200e+00 3.888570000000000082e+00 0.000000000000000000e+00 1.856919999999999904e+00 1.984590000000000076e+00 0.000000000000000000e+00 4.129640000000000200e+00 4.327429999999999666e+00 3.316230000000000011e+00 4.022050000000000125e+00
-1.438699999999999979e-01 3.765670000000000073e+00 4.497709999999999653e+00 1.852170000000000094e+00 1.110000000000000092e-03 1.799940000000000095e+00 6.016269999999999563e+00 1.886360000000000037e+00 4.495960000000000178e+00 8.011240000000000805e+00 1.882230000000000070e+00 1.794210000000000083e+00 1.052406000000000041e+01 1.299999999999999886e-04 1.831760000000000055e+00 8.523099999999999454e+00 3.763970000000000038e+00 4.534679999999999822e+00 4.370540000000000092e+00 1.883359999999999923e+00 1.833970000000000100e+00 2.365310000000000024e+00 1.883049999999999891e+00 4.533710000000000129e+00 1.167999999999999941e-02 3.762710000000000221e+00 2.342789999999999928e+00 1.625650000000000039e+00 6.899999999999999883e-03 3.040999999999999953e-02 6.157820000000000071e+00 1.886589999999999989e+00 2.339649999999999785e+00 7.775280000000000413e+00 1.881310000000000038e+00 2.525000000000000161e-02 1.037457999999999991e+01 3.760159999999999947e+00 3.984780000000000211e+00 8.752969999999999473e+00 2.890000000000000208e-03 6.302430000000000199e+00 4.215589999999999726e+00 1.883320000000000105e+00 3.980500000000000149e+00 2.599190000000000111e+00 1.886339999999999906e+00 6.291100000000000136e+00 3.339300000000000046e-01 1.877439999999999998e+00 4.474820000000000242e+00 2.241210000000000147e+00 1.884479999999999933e+00 2.197880000000000056e+00 6.491270000000000095e+00 1.039999999999999909e-03 4.479400000000000048e+00 8.393549999999999400e+00 4.689999999999999725e-03 2.200099999999999945e+00 1.003922000000000025e+01 1.884200000000000097e+00 1.858880000000000088e+00 8.134819999999999496e+00 1.888339999999999907e+00 4.122069999999999901e+00 3.887900000000000134e+00 3.761740000000000084e+00 1.855310000000000015e+00 1.982550000000000034e+00 3.766080000000000094e+00 4.126599999999999824e+00 4.336210000000000342e+00 3.321140000000000203e+00 4.025100000000000122e+00
-1.489800000000000013e-01 3.764440000000000008e+00 4.499590000000000423e+00 1.847310000000000008e+00 2.230000000000000211e-03 1.803260000000000085e+00 6.018480000000000274e+00 1.889049999999999896e+00 4.496279999999999610e+00 8.012050000000000338e+00 1.881000000000000005e+00 1.791919999999999957e+00 1.053039000000000058e+01 2.599999999999999772e-04 1.830400000000000027e+00 8.524309999999999832e+00 3.761039999999999939e+00 4.536920000000000286e+00 4.376949999999999896e+00 1.883219999999999894e+00 1.834410000000000096e+00 2.361619999999999830e+00 1.882560000000000011e+00 4.535129999999999661e+00 1.892999999999999891e-02 3.758519999999999861e+00 2.344180000000000152e+00 1.626190000000000024e+00 1.376999999999999925e-02 3.056000000000000036e-02 6.157359999999999722e+00 1.889750000000000041e+00 2.337969999999999882e+00 7.771670000000000300e+00 1.879189999999999916e+00 1.978999999999999856e-02 1.037473999999999918e+01 3.753439999999999888e+00 3.982110000000000039e+00 8.752230000000000842e+00 5.780000000000000415e-03 6.306169999999999831e+00 4.210329999999999906e+00 1.879499999999999948e+00 3.973650000000000126e+00 2.598399999999999821e+00 1.889210000000000056e+00 6.283669999999999867e+00 3.347600000000000020e-01 1.871439999999999992e+00 4.477400000000000269e+00 2.243700000000000028e+00 1.885480000000000045e+00 2.198550000000000004e+00 6.495009999999999728e+00 1.830000000000000029e-03 4.486469999999999736e+00 8.394610000000000127e+00 9.360000000000000264e-03 2.202980000000000160e+00 1.003279999999999994e+01 1.884949999999999903e+00 1.860959999999999948e+00 8.129519999999999413e+00 1.893199999999999994e+00 4.112599999999999589e+00 3.884240000000000137e+00 3.756419999999999870e+00 1.854440000000000088e+00 1.979340000000000099e+00 3.765099999999999891e+00 4.121570000000000178e+00 4.344059999999999810e+00 3.338229999999999809e+00 4.027470000000000105e+00
-1.552900000000000114e-01 3.763220000000000010e+00 4.501739999999999853e+00 1.841749999999999998e+00 3.340000000000000087e-03 1.805839999999999890e+00 6.020159999999999734e+00 1.891520000000000090e+00 4.497029999999999639e+00 8.012330000000000396e+00 1.879790000000000072e+00 1.789039999999999964e+00 1.053781000000000034e+01 4.000000000000000192e-04 1.828810000000000047e+00 8.526199999999999335e+00 3.758119999999999905e+00 4.539719999999999978e+00 4.384450000000000180e+00 1.883049999999999891e+00 1.834189999999999987e+00 2.357930000000000081e+00 1.881979999999999986e+00 4.537239999999999718e+00 2.631000000000000005e-02 3.754370000000000207e+00 2.345749999999999780e+00 1.627019999999999911e+00 2.054999999999999882e-02 3.025999999999999870e-02 6.156930000000000014e+00 1.892910000000000093e+00 2.336580000000000101e+00 7.768239999999999590e+00 1.877129999999999965e+00 1.350999999999999944e-02 1.037463999999999942e+01 3.746799999999999908e+00 3.979369999999999852e+00 8.751239999999999242e+00 8.640000000000000110e-03 6.310319999999999929e+00 4.204959999999999809e+00 1.872449999999999948e+00 3.966899999999999871e+00 2.597519999999999829e+00 1.892050000000000010e+00 6.276989999999999625e+00 3.391199999999999770e-01 1.865499999999999936e+00 4.479779999999999873e+00 2.248110000000000053e+00 1.886419999999999986e+00 2.201259999999999994e+00 6.501459999999999795e+00 2.370000000000000145e-03 4.493219999999999992e+00 8.397420000000000329e+00 1.396999999999999978e-02 2.207920000000000105e+00 1.002311000000000085e+01 1.885720000000000063e+00 1.863150000000000084e+00 8.122429999999999595e+00 1.897990000000000066e+00 4.101390000000000313e+00 3.877730000000000121e+00 3.751009999999999955e+00 1.854279999999999928e+00 1.975019999999999998e+00 3.763949999999999907e+00 4.114620000000000388e+00 4.350850000000000328e+00 3.366229999999999833e+00 4.029130000000000322e+00
-1.626599999999999990e-01 3.762020000000000142e+00 4.504139999999999588e+00 1.835599999999999898e+00 4.440000000000000370e-03 1.807679999999999954e+00 6.021279999999999966e+00 1.893750000000000044e+00 4.498170000000000002e+00 8.012090000000000600e+00 1.878589999999999982e+00 1.785619999999999985e+00 1.054615000000000080e+01 5.299999999999999807e-04 1.826999999999999957e+00 8.528669999999999973e+00 3.755240000000000133e+00 4.542980000000000018e+00 4.392859999999999765e+00 1.882859999999999978e+00 1.833339999999999970e+00 2.354290000000000216e+00 1.881329999999999947e+00 4.539950000000000152e+00 3.366000000000000242e-02 3.750309999999999810e+00 2.347459999999999880e+00 1.628109999999999946e+00 2.714000000000000093e-02 2.948999999999999885e-02 6.156620000000000203e+00 1.896020000000000039e+00 2.335480000000000000e+00 7.765030000000000321e+00 1.875140000000000029e+00 6.539999999999999807e-03 1.037425999999999959e+01 3.740330000000000155e+00 3.976630000000000109e+00 8.750040000000000262e+00 1.145000000000000011e-02 6.314809999999999590e+00 4.199720000000000120e+00 1.862919999999999909e+00 3.960389999999999855e+00 2.596569999999999823e+00 1.894789999999999974e+00 6.271230000000000082e+00 3.467500000000000027e-01 1.859720000000000040e+00 4.481919999999999682e+00 2.254319999999999879e+00 1.887259999999999938e+00 2.205869999999999997e+00 6.510460000000000136e+00 2.690000000000000117e-03 4.499609999999999665e+00 8.401849999999999596e+00 1.844000000000000153e-02 2.214799999999999880e+00 1.001051000000000002e+01 1.886500000000000066e+00 1.865410000000000013e+00 8.113780000000000214e+00 1.902619999999999978e+00 4.088729999999999976e+00 3.868640000000000079e+00 3.745629999999999793e+00 1.854800000000000004e+00 1.969719999999999915e+00 3.762659999999999894e+00 4.105929999999999858e+00 4.356340000000000323e+00 3.403090000000000170e+00 4.030030000000000001e+00
-1.708199999999999996e-01 3.760879999999999779e+00 4.506750000000000256e+00 1.829039999999999999e+00 5.499999999999999681e-03 1.808799999999999963e+00 6.021819999999999951e+00 1.895720000000000072e+00 4.499620000000000175e+00 8.011359999999999815e+00 1.877420000000000089e+00 1.781770000000000076e+00 1.055513000000000012e+01 6.599999999999999964e-04 1.825050000000000061e+00 8.531620000000000203e+00 3.752460000000000129e+00 4.546570000000000000e+00 4.401900000000000368e+00 1.882640000000000091e+00 1.831900000000000084e+00 2.350760000000000183e+00 1.880630000000000024e+00 4.543140000000000178e+00 4.071999999999999925e-02 3.746430000000000149e+00 2.349289999999999878e+00 1.629410000000000025e+00 3.337999999999999995e-02 2.826999999999999999e-02 6.156460000000000043e+00 1.899019999999999930e+00 2.334680000000000089e+00 5.833779999999999966e+00 1.873269999999999991e+00 6.328030000000000044e+00 1.037359000000000009e+01 3.734179999999999833e+00 3.973920000000000119e+00 8.748689999999999856e+00 1.412000000000000061e-02 6.319519999999999804e+00 4.194869999999999877e+00 1.851799999999999891e+00 3.954299999999999926e+00 2.595610000000000195e+00 1.897380000000000067e+00 6.266600000000000392e+00 3.572199999999999820e-01 1.854249999999999954e+00 4.483789999999999942e+00 2.262070000000000025e+00 1.887960000000000083e+00 2.212130000000000152e+00 6.521639999999999660e+00 2.799999999999999972e-03 4.505560000000000009e+00 8.407690000000000552e+00 2.266999999999999918e-02 2.223339999999999872e+00 9.995609999999999218e+00 1.887289999999999912e+00 1.867690000000000072e+00 8.103960000000000719e+00 1.906979999999999897e+00 4.075079999999999814e+00 3.857450000000000045e+00 3.740429999999999922e+00 1.855960000000000054e+00 1.963659999999999961e+00 3.761260000000000048e+00 4.095790000000000042e+00 4.360299999999999621e+00 3.446099999999999941e+00 4.030090000000000394e+00
-1.794199999999999962e-01 3.759819999999999940e+00 4.509479999999999933e+00 1.822340000000000071e+00 6.510000000000000162e-03 1.809220000000000050e+00 6.021770000000000067e+00 1.897410000000000041e+00 4.501299999999999635e+00 8.010210000000000719e+00 1.876330000000000053e+00 1.777640000000000109e+00 1.056436000000000064e+01 7.900000000000000121e-04 1.823029999999999928e+00 8.534890000000000754e+00 3.749859999999999971e+00 4.550300000000000011e+00 4.411190000000000389e+00 1.882419999999999982e+00 1.829960000000000031e+00 2.347449999999999815e+00 1.879930000000000101e+00 4.546619999999999884e+00 4.721000000000000196e-02 3.742840000000000167e+00 2.351179999999999826e+00 1.630830000000000002e+00 3.910000000000000281e-02 2.662000000000000130e-02 6.156520000000000437e+00 1.901810000000000000e+00 2.334189999999999987e+00 5.831199999999999939e+00 1.871569999999999956e+00 6.320359999999999978e+00 1.037262999999999913e+01 3.728520000000000056e+00 3.971350000000000158e+00 8.747260000000000701e+00 1.660000000000000017e-02 6.324300000000000033e+00 4.190680000000000405e+00 1.840039999999999898e+00 3.948850000000000193e+00 2.594689999999999941e+00 1.899739999999999984e+00 6.263279999999999959e+00 3.698299999999999921e-01 1.849250000000000060e+00 4.485360000000000014e+00 2.270919999999999828e+00 1.888490000000000002e+00 2.219660000000000188e+00 6.534440000000000026e+00 2.739999999999999814e-03 4.510950000000000237e+00 8.414580000000000837e+00 2.654000000000000109e-02 2.233130000000000059e+00 9.979240000000000776e+00 1.888079999999999981e+00 1.869879999999999987e+00 8.093479999999999563e+00 1.910940000000000083e+00 4.061020000000000074e+00 3.844840000000000035e+00 3.735590000000000188e+00 1.857660000000000089e+00 1.957149999999999945e+00 3.759790000000000187e+00 4.084660000000000402e+00 4.362549999999999706e+00 3.492150000000000087e+00 4.029300000000000104e+00
-1.880600000000000049e-01 3.758859999999999868e+00 4.512249999999999872e+00 1.815770000000000106e+00 7.429999999999999973e-03 1.809050000000000047e+00 6.021189999999999820e+00 1.898800000000000043e+00 4.503099999999999881e+00 8.008729999999999905e+00 1.875320000000000098e+00 1.773430000000000062e+00 1.057343000000000011e+01 9.100000000000000016e-04 1.821020000000000083e+00 8.538299999999999557e+00 3.747510000000000119e+00 4.553969999999999629e+00 4.420320000000000249e+00 1.882209999999999939e+00 1.827620000000000022e+00 2.344440000000000079e+00 1.879250000000000087e+00 4.550180000000000113e+00 5.288999999999999951e-02 3.739619999999999944e+00 2.353079999999999838e+00 1.632290000000000019e+00 4.413000000000000256e-02 2.460000000000000034e-02 6.156830000000000247e+00 1.904320000000000013e+00 2.333990000000000009e+00 5.829010000000000247e+00 1.870079999999999965e+00 6.312789999999999679e+00 1.037143999999999977e+01 3.723489999999999966e+00 3.968980000000000175e+00 1.067417000000000016e+01 1.881999999999999992e-02 1.000000000000000082e-05 4.187359999999999971e+00 1.828470000000000040e+00 3.944199999999999928e+00 2.593879999999999963e+00 1.901799999999999935e+00 6.261359999999999815e+00 3.837300000000000155e-01 1.844880000000000075e+00 4.486620000000000275e+00 2.280390000000000139e+00 1.888800000000000034e+00 2.227990000000000137e+00 6.548149999999999693e+00 2.579999999999999828e-03 4.515690000000000204e+00 8.422090000000000742e+00 2.995000000000000093e-02 2.243650000000000144e+00 9.962389999999999191e+00 1.888849999999999918e+00 1.871920000000000028e+00 8.082919999999999661e+00 1.914390000000000036e+00 4.047229999999999883e+00 3.831589999999999829e+00 3.731279999999999930e+00 1.859790000000000054e+00 1.950530000000000097e+00 3.758319999999999883e+00 4.073089999999999655e+00 4.363069999999999560e+00 3.538190000000000168e+00 4.027680000000000149e+00
-1.963600000000000068e-01 3.758020000000000138e+00 4.514960000000000306e+00 1.809600000000000097e+00 8.259999999999999981e-03 1.808380000000000098e+00 6.020159999999999734e+00 1.899909999999999988e+00 4.504920000000000258e+00 8.007020000000000692e+00 1.874440000000000106e+00 1.769320000000000004e+00 1.058197999999999972e+01 1.020000000000000073e-03 1.819110000000000005e+00 8.541689999999999117e+00 3.745439999999999880e+00 4.557409999999999961e+00 4.428899999999999615e+00 1.882009999999999961e+00 1.825029999999999930e+00 2.341790000000000038e+00 1.878619999999999957e+00 4.553639999999999688e+00 5.756000000000000005e-02 3.736829999999999874e+00 2.354919999999999902e+00 1.633699999999999930e+00 4.839000000000000246e-02 2.230999999999999997e-02 6.157399999999999984e+00 1.906500000000000083e+00 2.334060000000000024e+00 5.827230000000000132e+00 1.868819999999999926e+00 6.305600000000000094e+00 1.037005000000000088e+01 3.719190000000000218e+00 3.966880000000000184e+00 1.067285000000000039e+01 2.072999999999999843e-02 4.420000000000000318e-03 4.184999999999999609e+00 1.817760000000000042e+00 3.940479999999999983e+00 2.593230000000000146e+00 1.903529999999999944e+00 6.260849999999999582e+00 3.980199999999999849e-01 1.841229999999999922e+00 4.487569999999999837e+00 2.289940000000000087e+00 1.888910000000000089e+00 2.236619999999999830e+00 6.562050000000000161e+00 2.350000000000000092e-03 4.519720000000000404e+00 8.429790000000000560e+00 3.282999999999999807e-02 2.254360000000000142e+00 9.945980000000000487e+00 1.889580000000000037e+00 1.873709999999999987e+00 8.072789999999999466e+00 1.917249999999999899e+00 4.034279999999999866e+00 3.818480000000000096e+00 3.727599999999999802e+00 1.862209999999999921e+00 1.944129999999999914e+00 3.756880000000000219e+00 4.061600000000000321e+00 4.361959999999999837e+00 3.581749999999999989e+00 4.025350000000000428e+00
-2.040299999999999891e-01 3.757309999999999928e+00 4.517549999999999955e+00 1.804000000000000048e+00 8.970000000000000542e-03 1.807360000000000078e+00 6.018799999999999706e+00 1.900770000000000071e+00 4.506689999999999863e+00 8.005190000000000694e+00 1.873669999999999947e+00 1.765449999999999964e+00 1.058972999999999942e+01 1.110000000000000092e-03 1.817350000000000021e+00 8.544909999999999783e+00 3.743689999999999962e+00 4.560489999999999711e+00 4.436679999999999957e+00 1.881850000000000023e+00 1.822279999999999900e+00 2.339510000000000201e+00 1.878060000000000063e+00 4.556829999999999714e+00 6.115000000000000296e-02 3.734510000000000218e+00 2.356669999999999821e+00 1.634989999999999943e+00 5.183000000000000107e-02 1.983000000000000040e-02 6.158210000000000406e+00 1.908330000000000082e+00 2.334350000000000147e+00 5.825849999999999973e+00 1.867799999999999905e+00 6.298989999999999867e+00 1.036855000000000082e+01 3.715660000000000185e+00 3.965069999999999872e+00 1.067165999999999926e+01 2.230999999999999997e-02 8.460000000000000506e-03 4.183629999999999960e+00 1.808319999999999927e+00 3.937689999999999912e+00 2.592769999999999797e+00 1.904919999999999947e+00 6.261619999999999742e+00 4.119300000000000184e-01 1.838310000000000111e+00 4.488240000000000229e+00 2.299139999999999961e+00 1.888800000000000034e+00 2.245140000000000136e+00 6.575529999999999653e+00 2.099999999999999870e-03 4.523060000000000080e+00 8.437300000000000466e+00 3.515000000000000069e-02 2.264819999999999833e+00 9.930740000000000123e+00 1.890279999999999960e+00 1.875220000000000109e+00 8.063480000000000203e+00 1.919529999999999959e+00 4.022579999999999600e+00 3.806119999999999948e+00 3.724590000000000067e+00 1.864800000000000013e+00 1.938209999999999988e+00 3.755529999999999813e+00 4.050629999999999953e+00 4.359429999999999694e+00 3.621090000000000142e+00 4.022429999999999950e+00
-2.109199999999999964e-01 3.756709999999999994e+00 4.519960000000000200e+00 1.799069999999999947e+00 9.579999999999999974e-03 1.806100000000000039e+00 6.017220000000000013e+00 1.901399999999999979e+00 4.508329999999999949e+00 8.003320000000000434e+00 1.873019999999999907e+00 1.761919999999999931e+00 1.059655000000000058e+01 1.199999999999999895e-03 1.815790000000000015e+00 8.547890000000000654e+00 3.742230000000000167e+00 4.563150000000000261e+00 4.443520000000000358e+00 1.881720000000000059e+00 1.819490000000000052e+00 2.337610000000000188e+00 1.877599999999999936e+00 4.559689999999999799e+00 6.368999999999999662e-02 3.732619999999999827e+00 2.358319999999999972e+00 1.636130000000000084e+00 5.451999999999999902e-02 1.722999999999999879e-02 6.159239999999999604e+00 1.909829999999999917e+00 2.334820000000000118e+00 5.824810000000000265e+00 1.866989999999999927e+00 6.293059999999999654e+00 1.036697000000000024e+01 3.712839999999999918e+00 3.963560000000000194e+00 1.067065999999999981e+01 2.358999999999999986e-02 1.209999999999999964e-02 4.183139999999999858e+00 1.800340000000000051e+00 3.935770000000000213e+00 2.592490000000000183e+00 1.905990000000000073e+00 6.263510000000000133e+00 4.249299999999999744e-01 1.836090000000000000e+00 4.488679999999999559e+00 2.307700000000000085e+00 1.888509999999999911e+00 2.253249999999999975e+00 6.588169999999999860e+00 1.889999999999999970e-03 4.525760000000000005e+00 8.444350000000000023e+00 3.697000000000000286e-02 2.274700000000000166e+00 9.917130000000000223e+00 1.890949999999999909e+00 1.876419999999999977e+00 8.055220000000000269e+00 1.921240000000000059e+00 4.012330000000000396e+00 3.794919999999999849e+00 3.722249999999999837e+00 1.867450000000000054e+00 1.932909999999999906e+00 3.754269999999999996e+00 4.040440000000000254e+00 4.355760000000000076e+00 3.655289999999999928e+00 4.019059999999999633e+00
-2.169699999999999962e-01 3.756219999999999892e+00 4.522190000000000154e+00 1.794820000000000082e+00 1.010999999999999920e-02 1.804710000000000036e+00 6.015509999999999913e+00 1.901869999999999949e+00 4.509830000000000005e+00 8.001459999999999795e+00 1.872470000000000079e+00 1.758750000000000036e+00 1.060242000000000040e+01 1.270000000000000078e-03 1.814419999999999922e+00 8.550580000000000069e+00 3.741039999999999921e+00 4.565369999999999706e+00 4.449419999999999931e+00 1.881610000000000005e+00 1.816699999999999982e+00 2.336040000000000116e+00 1.877210000000000045e+00 4.562179999999999680e+00 6.526999999999999469e-02 3.731110000000000149e+00 2.359849999999999781e+00 1.637089999999999934e+00 5.653999999999999998e-02 1.459000000000000054e-02 6.160440000000000360e+00 1.911019999999999941e+00 2.335420000000000051e+00 5.824060000000000237e+00 1.866379999999999928e+00 6.287819999999999965e+00 1.036536000000000080e+01 3.710669999999999913e+00 3.962309999999999999e+00 1.066982999999999926e+01 2.459000000000000075e-02 1.532999999999999988e-02 4.183410000000000295e+00 1.793830000000000036e+00 3.934610000000000163e+00 2.592410000000000103e+00 1.906789999999999985e+00 6.266300000000000203e+00 4.367099999999999871e-01 1.834489999999999954e+00 4.488929999999999865e+00 2.315459999999999852e+00 1.888050000000000006e+00 2.260780000000000012e+00 6.599739999999999718e+00 1.719999999999999958e-03 4.527929999999999566e+00 8.450810000000000599e+00 3.831999999999999990e-02 2.283840000000000092e+00 9.905319999999999681e+00 1.891580000000000039e+00 1.877329999999999943e+00 8.048080000000000567e+00 1.922449999999999992e+00 4.003560000000000230e+00 3.785060000000000091e+00 3.720499999999999918e+00 1.870090000000000030e+00 1.928279999999999994e+00 3.753130000000000077e+00 4.031159999999999854e+00 4.351219999999999644e+00 3.684169999999999945e+00 4.015380000000000393e+00
-2.465799999999999936e-01 3.752740000000000187e+00 4.535260000000000069e+00 1.775600000000000067e+00 1.294999999999999971e-02 1.788920000000000066e+00 5.998380000000000045e+00 1.904309999999999947e+00 4.518659999999999677e+00 7.991760000000000197e+00 1.869590000000000085e+00 1.740930000000000089e+00 1.062756000000000078e+01 2.069999999999999792e-03 1.807290000000000063e+00 8.564159999999999329e+00 3.737140000000000128e+00 4.571790000000000020e+00 4.476370000000000182e+00 1.879920000000000035e+00 1.791749999999999954e+00 2.329450000000000021e+00 1.876679999999999904e+00 4.572029999999999816e+00 4.866000000000000186e-02 3.724829999999999863e+00 2.364510000000000112e+00 -2.814800000000000080e-01 5.958999999999999714e-02 6.319119999999999848e+00 6.175769999999999982e+00 1.917929999999999913e+00 2.337299999999999933e+00 5.818310000000000315e+00 1.859960000000000058e+00 6.254450000000000287e+00 1.035060999999999964e+01 3.709639999999999826e+00 3.962410000000000210e+00 1.066743999999999915e+01 2.697000000000000092e-02 3.355999999999999955e-02 4.200639999999999930e+00 1.781930000000000014e+00 3.946909999999999918e+00 2.593449999999999811e+00 1.904789999999999983e+00 6.317459999999999631e+00 4.988699999999999801e-01 1.835769999999999902e+00 4.487879999999999647e+00 2.353790000000000049e+00 1.882579999999999920e+00 2.313530000000000086e+00 6.677480000000000082e+00 3.360000000000000139e-03 4.537289999999999601e+00 8.484389999999999432e+00 3.857000000000000012e-02 2.346410000000000107e+00 9.863960000000000505e+00 1.898789999999999978e+00 1.875620000000000065e+00 8.020089999999999719e+00 1.920779999999999932e+00 3.970149999999999846e+00 3.745859999999999967e+00 3.714799999999999880e+00 1.899750000000000050e+00 1.907140000000000057e+00 3.747759999999999980e+00 3.990759999999999863e+00 4.268309999999999604e+00 1.379999999999999977e-02 3.956199999999999939e+00
-2.525000000000000022e-01 3.748909999999999965e+00 4.538920000000000066e+00 1.769139999999999935e+00 1.521999999999999915e-02 1.777239999999999931e+00 5.991679999999999673e+00 1.905929999999999902e+00 4.523480000000000167e+00 7.992189999999999905e+00 1.866810000000000080e+00 1.735840000000000050e+00 1.062453999999999965e+01 2.589999999999999854e-03 1.803679999999999950e+00 8.567249999999999588e+00 3.736000000000000210e+00 4.567140000000000200e+00 4.481679999999999886e+00 1.876600000000000046e+00 1.768140000000000045e+00 2.327859999999999818e+00 1.878149999999999986e+00 4.574029999999999596e+00 2.900000000000000147e-02 3.720779999999999976e+00 2.368640000000000079e+00 -2.714300000000000046e-01 4.968000000000000194e-02 6.305640000000000356e+00 6.201950000000000074e+00 1.925240000000000062e+00 2.341040000000000010e+00 5.811200000000000365e+00 1.858379999999999921e+00 6.241389999999999993e+00 1.034708000000000006e+01 3.720909999999999940e+00 3.974450000000000038e+00 1.067957999999999963e+01 2.314000000000000085e-02 4.207000000000000323e-02 4.212570000000000370e+00 1.809439999999999937e+00 3.966190000000000104e+00 4.523539999999999672e+00 1.897669999999999968e+00 3.751999999999999780e-02 5.045600000000000085e-01 1.848179999999999934e+00 4.488949999999999996e+00 2.361380000000000035e+00 1.876020000000000021e+00 2.341289999999999871e+00 6.704939999999999678e+00 9.860000000000000708e-03 4.541610000000000369e+00 8.493119999999999337e+00 3.547999999999999765e-02 2.370210000000000150e+00 9.878569999999999851e+00 1.906530000000000058e+00 1.864789999999999948e+00 8.025380000000000180e+00 1.910770000000000080e+00 3.974870000000000125e+00 3.742449999999999832e+00 3.720899999999999874e+00 1.932039999999999980e+00 1.896260000000000057e+00 3.747910000000000075e+00 3.975979999999999848e+00 4.171459999999999724e+00 3.741239999999999899e+00 3.900619999999999976e+00
-2.525299999999999767e-01 3.746869999999999923e+00 4.538610000000000255e+00 1.766240000000000032e+00 1.640000000000000138e-02 1.773879999999999901e+00 5.992469999999999963e+00 1.906430000000000069e+00 4.525350000000000428e+00 7.994839999999999947e+00 1.865080000000000071e+00 1.735819999999999919e+00 1.061960000000000015e+01 2.769999999999999893e-03 1.802100000000000035e+00 8.567690000000000694e+00 3.735069999999999890e+00 4.564370000000000260e+00 4.482149999999999856e+00 1.874670000000000059e+00 1.759330000000000060e+00 2.327500000000000124e+00 1.878880000000000106e+00 4.574819999999999887e+00 2.590999999999999900e-02 3.718669999999999920e+00 2.371309999999999807e+00 -2.668900000000000161e-01 4.308000000000000024e-02 6.304780000000000051e+00 6.213630000000000209e+00 1.929370000000000029e+00 2.345559999999999867e+00 5.807129999999999903e+00 1.859750000000000014e+00 6.240190000000000126e+00 1.034820000000000029e+01 3.727640000000000065e+00 3.982359999999999900e+00 1.069011000000000067e+01 2.057000000000000148e-02 4.356000000000000150e-02 4.213079999999999714e+00 1.823779999999999957e+00 3.971519999999999939e+00 4.523760000000000225e+00 1.894320000000000004e+00 4.852999999999999675e-02 5.012199999999999989e-01 1.854880000000000084e+00 4.490579999999999572e+00 2.362919999999999909e+00 1.872810000000000086e+00 2.348720000000000141e+00 6.706229999999999691e+00 1.346999999999999933e-02 4.544030000000000236e+00 8.495340000000000558e+00 3.481000000000000066e-02 2.372020000000000017e+00 9.887040000000000717e+00 1.909960000000000102e+00 1.858049999999999979e+00 8.031069999999999709e+00 1.905880000000000019e+00 3.979659999999999975e+00 3.739689999999999959e+00 3.725769999999999804e+00 1.943829999999999947e+00 1.888579999999999925e+00 3.748860000000000081e+00 3.969030000000000058e+00 4.136739999999999640e+00 3.716969999999999885e+00 3.890019999999999811e+00