-2.070859415699999886e+02
-2.072692790000000116e+02
-2.077245537599999921e+02
-2.083858877899999982e+02
-2.091673863100000119e+02
-2.099825089699999978e+02
-2.107585788400000126e+02
-2.114472949400000061e+02
-2.120236220600000081e+02
-2.124815298999999982e+02
-2.128329817400000081e+02
-2.130981712100000038e+02
-2.140048186699999917e+02
-2.142434306300000060e+02
-2.142631859500000076e+02
-2.142859351699999877e+02
-2.142043639100000121e+02
-2.137307803200000080e+02
-2.136122603299999980e+02
-2.136285472700000128e+02
-2.139255901600000129e+02
-2.140955693900000085e+02
-2.140284936399999935e+02
-2.136734623700000100e+02
-2.133934378499999980e+02
-2.137584743300000127e+02
-2.139828193799999951e+02
-2.138744056499999999e+02
-2.137709101599999997e+02
-2.139620095399999968e+02
-2.142636266199999966e+02
-2.140983690600000102e+02
-2.141222728799999970e+02
-2.142208023000000026e+02
-2.141290377800000044e+02
-2.139723799600000120e+02
-2.138717619500000069e+02
-2.138107109899999898e+02
-2.137800729500000045e+02
-2.138174511199999870e+02
-2.141826863299999957e+02
-2.141484295500000030e+02
-2.142335016899999971e+02
-2.139811201900000128e+02
-2.138483728999999869e+02
-2.138528219000000092e+02
-2.137592562099999896e+02
-2.138560911700000133e+02
-2.139068621000000121e+02
-2.139063306399999931e+02
-2.141473129500000141e+02
-2.142136345899999981e+02
-2.142362059600000066e+02
-2.142475753800000007e+02
-2.144958946499999968e+02
-2.144770507000000066e+02
-2.144341528500000038e+02
-2.143075087900000142e+02
-2.139827102700000125e+02
-2.138617198899999892e+02
-2.137614564600000051e+02
-2.137528827200000023e+02
-2.139980796600000019e+02
-2.140902852799999891e+02
-2.142316198199999917e+02
-2.144406195100000048e+02
-2.142017321600000059e+02
-2.140733054600000003e+02
-2.137764163699999926e+02
-2.135244453599999872e+02
-2.137233103700000072e+02
-2.140473083500000087e+02
-2.142929031399999928e+02
-2.143378850599999907e+02
-2.143722378600000127e+02
-2.143078893199999868e+02
-2.141953411400000107e+02
-2.144141052500000058e+02
-2.144087611299999878e+02
-2.144031686099999945e+02
-2.141439881299999968e+02
-2.141104263999999944e+02
-2.140621621399999981e+02
-2.141142642799999862e+02
-2.144611097899999947e+02
-2.143878222099999959e+02
-2.143706814699999939e+02
-2.140709457099999895e+02
-2.140135674100000074e+02
-2.140717581700000096e+02
-2.142750117299999886e+02
-2.141613762700000052e+02
-2.144016821399999913e+02
-2.141453691499999934e+02
-2.140770729600000095e+02
-2.140461327700000140e+02
-2.142857991299999867e+02
-2.143089116099999956e+02
-2.142726458399999956e+02
-2.141527094600000112e+02
-2.138782965300000001e+02
-2.137423984899999994e+02
-2.137101218299999914e+02
-2.139097941999999932e+02
-2.141642123500000139e+02
-2.145642169699999897e+02
-2.142831104299999936e+02
-2.142167577399999914e+02
-2.141356961600000091e+02
-2.141493707600000107e+02
-2.140856416899999886e+02
-2.140396211499999879e+02
-2.142238092400000085e+02
-2.142260913499999901e+02
-2.142047202500000083e+02
-2.142963948000000016e+02
-2.144194104899999900e+02
-2.144291665199999954e+02
-2.143551609099999951e+02
-2.142597570599999983e+02
-2.142699522199999933e+02
-2.142976030499999922e+02
-2.141575700699999913e+02
-2.139832929899999954e+02
-2.138927176299999928e+02
-2.140588765900000112e+02
-2.140904955299999983e+02
-2.142766443300000105e+02
-2.143245225500000117e+02
-2.144464952700000140e+02
-2.143801494600000126e+02
-2.143213466100000062e+02
-2.142094784900000093e+02
-2.142807089199999950e+02
-2.142273639699999990e+02
-2.141492897699999958e+02
-2.140500760600000092e+02
-2.140157704300000034e+02
-2.139493576399999881e+02
-2.143492061000000035e+02
-2.142870488799999862e+02
-2.142399090099999910e+02
-2.142802664200000038e+02
-2.142541298300000108e+02
-2.141056756399999870e+02
-2.140260491699999932e+02
-2.141558051000000091e+02
-2.143553498900000136e+02
-2.141690106899999932e+02
-2.140932936300000051e+02
-2.142008121700000061e+02
-2.139214673900000037e+02
-2.140746274599999879e+02
-2.142188447000000053e+02
-2.143689533099999949e+02
-2.143475221900000065e+02
-2.142609299400000111e+02
-2.143513794399999881e+02
-2.141398746600000038e+02
-2.142992637499999944e+02
-2.142683437400000059e+02
-2.142733519699999931e+02
-2.143383323699999892e+02
-2.144609827399999915e+02
-2.143960948499999972e+02
-2.142469509000000016e+02
-2.140648878199999956e+02
-2.138510228600000005e+02
-2.139938216699999884e+02
-2.141043778599999996e+02
-2.142499076599999910e+02
-2.142962002300000108e+02
-2.140117274700000110e+02
-2.140536245799999904e+02
-2.137862540600000045e+02
-2.141507936499999971e+02
-2.140214472700000101e+02
-2.143242261299999996e+02
-2.142043772700000090e+02
-2.142716449000000125e+02
-2.139493109899999865e+02
-2.140011687100000017e+02
-2.142374695499999859e+02
-2.141891059200000029e+02
-2.144883568399999945e+02
-2.142658543999999949e+02
-2.143059685300000012e+02
-2.142140525700000069e+02
-2.141620469300000025e+02
-2.141485482299999887e+02
-2.139853792700000099e+02
-2.139098184400000093e+02
-2.138170274899999868e+02
-2.140438687799999968e+02
-2.142140278699999953e+02
-2.142765775700000006e+02
-2.139049203700000135e+02
-2.138897853999999938e+02
-2.139083686099999966e+02
-2.140880102300000090e+02
-2.142297650499999975e+02
-2.140324401100000102e+02
-2.141320352600000092e+02
-2.142078038399999969e+02
-2.141015656799999931e+02
-2.140911634999999933e+02
-2.142469669300000135e+02
-2.141076525500000116e+02
-2.142472945000000095e+02
-2.141969106100000033e+02
