-6.396513999999999811e+00 -1.501199999999999930e-02 1.262412000000000090e+00 -3.766878000000000171e+00 6.387000000000000316e-03 -3.539403000000000077e+00 -2.223698000000000174e+00 -1.086948999999999943e+00 2.372560000000000002e+00 -2.640029000000000181e+00 2.896000000000000137e-03 -2.920805000000000096e+00 5.998711000000000126e+00 2.997999999999999797e-03 -1.281099999999999905e+00 3.639037000000000077e+00 -1.551300000000000075e-02 3.143895000000000106e+00 6.037590999999999930e+00 -2.177699999999999914e-01 -3.322499000000000091e+00 -1.458359999999999934e-01 -4.947309999999999763e-01 3.863421000000000216e+00 5.555980000000000363e-01 -2.861999999999999961e-03 3.053279999999999883e-01 5.389150000000000329e-01 3.778999999999999807e-03 -7.309080000000000021e-01 -8.583699999999999664e-02 5.510400000000000020e-02 4.305640000000000023e-01 2.215390000000000137e-01 3.256699999999999873e-02 -1.555185000000000040e+00 -3.370440000000000103e-01 2.569999999999999802e-03 -1.512249999999999983e-01 -4.820989999999999998e-01 5.079999999999999880e-04 7.968830000000000080e-01 -5.963410000000000100e-01 -6.335545999999999900e+00 -1.676499999999999865e-02 -2.422640000000000071e-01 4.833999999999999755e-03 8.680250000000000465e-01 6.016530000000000378e+00 -5.060699999999999921e-02 -3.167159999999999975e-01 3.227196999999999871e+00 1.557000000000000007e-03 3.510263999999999829e+00 4.537155000000000271e+00 -4.209149999999999836e-01 -5.423550000000000315e-01 2.975492000000000026e+00 -1.910000000000000077e-04 3.464478999999999864e+00 -5.887049000000000198e+00 -4.850000000000000253e-04 1.897860000000000102e-01 -3.336590999999999863e+00 -1.192400000000000057e-02 -3.258961999999999914e+00 -5.046523999999999788e+00 -3.419240000000000057e-01 1.263443000000000094e+00 -1.947500000000000009e+00 -2.714409999999999878e-01 -3.337584000000000106e+00 -6.137249999999999650e-01 9.111736000000000502e+00 -5.004210000000000047e-01
-6.300493000000000343e+00 -2.559999999999999884e-04 1.329919000000000073e+00 -3.716940999999999828e+00 1.494900000000000048e-02 -3.579655999999999949e+00 -2.393609999999999793e+00 -1.076554999999999929e+00 2.261087999999999987e+00 -2.649557999999999858e+00 -6.448999999999999871e-03 -2.986202000000000023e+00 5.840099000000000373e+00 6.954000000000000112e-03 -1.258434000000000053e+00 3.504065000000000207e+00 -2.941799999999999971e-02 3.022197999999999940e+00 5.853494999999999671e+00 -2.063879999999999881e-01 -3.296225999999999878e+00 -1.179790000000000005e-01 -4.750190000000000246e-01 3.715778999999999943e+00 4.313029999999999919e-01 8.758999999999999425e-03 3.020809999999999884e-01 5.241639999999999633e-01 -3.802200000000000024e-02 -7.359170000000000433e-01 -1.208399999999999926e-02 4.215100000000000097e-02 4.410350000000000104e-01 2.441740000000000022e-01 4.594700000000000173e-02 -1.490180000000000060e+00 -3.841160000000000130e-01 3.305500000000000105e-02 -1.389620000000000022e-01 -4.579170000000000185e-01 -5.857000000000000227e-03 7.571999999999999842e-01 -4.362210000000000254e-01 -6.123815999999999704e+00 2.866099999999999898e-02 -2.143500000000000127e-01 -1.998399999999999829e-02 1.014283000000000046e+00 5.988184000000000395e+00 -2.828999999999999918e-03 -3.245250000000000079e-01 3.257983999999999991e+00 -4.293500000000000094e-02 3.477435999999999972e+00 4.586027999999999771e+00 -4.160650000000000182e-01 -4.961380000000000234e-01 2.971595000000000208e+00 -3.134800000000000086e-02 3.478533999999999793e+00 -5.747728999999999644e+00 1.448600000000000061e-02 2.002829999999999888e-01 -3.213013000000000119e+00 -4.461199999999999888e-02 -3.146214000000000066e+00 -4.959760000000000169e+00 -2.682120000000000060e-01 1.218491999999999909e+00 -1.932727000000000084e+00 -2.774800000000000044e-01 -3.304453000000000085e+00 -6.614550000000000152e-01 8.856294999999999362e+00 -4.914319999999999800e-01
-6.112910000000000288e+00 1.487300000000000080e-02 1.394643999999999995e+00 -3.617417999999999800e+00 2.302299999999999833e-02 -3.552417999999999854e+00 -2.543826000000000143e+00 -1.036820999999999993e+00 2.131785999999999959e+00 -2.631248999999999949e+00 -1.668000000000000038e-02 -2.998904000000000014e+00 5.593034000000000283e+00 1.091699999999999962e-02 -1.226229999999999931e+00 3.333019000000000176e+00 -3.689300000000000218e-02 2.833698000000000050e+00 5.588612999999999609e+00 -1.850420000000000120e-01 -3.250497000000000192e+00 -9.905500000000000416e-02 -4.434370000000000256e-01 3.505250000000000199e+00 2.982469999999999843e-01 1.950500000000000150e-02 3.006240000000000023e-01 4.983480000000000132e-01 -7.935300000000000686e-02 -7.549960000000000004e-01 7.046900000000000386e-02 2.913900000000000171e-02 4.449259999999999882e-01 2.603909999999999836e-01 5.781700000000000034e-02 -1.422759000000000107e+00 -4.315950000000000064e-01 6.139499999999999819e-02 -1.256299999999999917e-01 -4.241969999999999907e-01 -1.183000000000000024e-02 7.238470000000000182e-01 -2.196430000000000049e-01 -5.399409000000000347e+00 9.764699999999999769e-02 -1.795170000000000099e-01 -4.304199999999999693e-02 1.172708000000000084e+00 5.856162000000000312e+00 4.605000000000000066e-02 -3.257999999999999785e-01 3.228692000000000117e+00 -8.886199999999999655e-02 3.393813999999999886e+00 4.556645999999999752e+00 -3.987859999999999738e-01 -4.461129999999999818e-01 2.915453999999999990e+00 -6.049700000000000216e-02 3.450022000000000144e+00 -5.505855000000000388e+00 2.922999999999999904e-02 1.998719999999999941e-01 -3.036439000000000110e+00 -7.894199999999999828e-02 -2.982111000000000178e+00 -4.777370999999999590e+00 -1.938650000000000095e-01 1.176061999999999941e+00 -1.872516000000000069e+00 -2.787209999999999965e-01 -3.238004999999999800e+00 -7.464210000000000012e-01 8.021990999999999872e+00 -5.052579999999999849e-01
-5.833063000000000109e+00 2.320200000000000040e-02 1.447416999999999954e+00 -3.457427000000000028e+00 3.248499999999999999e-02 -3.466164000000000023e+00 -2.668635999999999786e+00 -9.708959999999999813e-01 1.985069999999999890e+00 -2.584188000000000152e+00 -2.587199999999999916e-02 -2.954004999999999992e+00 5.256769000000000247e+00 1.465299999999999936e-02 -1.175010000000000110e+00 3.127960999999999991e+00 -4.001099999999999796e-02 2.583444000000000074e+00 5.244218000000000046e+00 -1.600090000000000123e-01 -3.194227000000000150e+00 -9.014199999999999990e-02 -4.016669999999999963e-01 3.235742999999999814e+00 1.523950000000000027e-01 3.077399999999999927e-02 3.017719999999999847e-01 4.620330000000000270e-01 -1.215340000000000031e-01 -7.853449999999999598e-01 1.610550000000000037e-01 1.560199999999999955e-02 4.454540000000000166e-01 2.687410000000000077e-01 6.689499999999999613e-02 -1.352139999999999898e+00 -4.771580000000000266e-01 8.991899999999999893e-02 -1.112609999999999988e-01 -3.819370000000000265e-01 -1.947000000000000119e-02 6.926259999999999639e-01 4.331499999999999934e-02 -4.372461999999999627e+00 1.894079999999999930e-01 -1.360989999999999978e-01 -6.542499999999999705e-02 1.346540999999999988e+00 5.620640999999999998e+00 9.493899999999999562e-02 -3.221709999999999852e-01 3.138098999999999972e+00 -1.359470000000000123e-01 3.263158999999999921e+00 4.452734000000000414e+00 -3.669910000000000116e-01 -3.939520000000000244e-01 2.808780000000000054e+00 -8.890900000000000192e-02 3.378518000000000132e+00 -5.158924999999999983e+00 4.670200000000000046e-02 1.887379999999999891e-01 -2.808898999999999813e+00 -1.165039999999999965e-01 -2.767834000000000128e+00 -4.502113999999999727e+00 -1.180599999999999983e-01 1.137969999999999926e+00 -1.768964999999999899e+00 -2.768769999999999842e-01 -3.135050000000000114e+00 -8.605310000000000459e-01 6.859954000000000107e+00 -5.415680000000000494e-01
-5.463491999999999571e+00 2.705199999999999966e-02 1.494539000000000062e+00 -3.238914999999999988e+00 4.428800000000000098e-02 -3.329422000000000104e+00 -2.759876000000000218e+00 -8.842290000000000427e-01 1.825965000000000060e+00 -2.510702999999999907e+00 -3.548699999999999771e-02 -2.853343999999999880e+00 4.836522000000000432e+00 1.821400000000000102e-02 -1.108878999999999948e+00 2.895915000000000017e+00 -4.009999999999999676e-02 2.280021000000000075e+00 4.812281999999999726e+00 -1.294349999999999945e-01 -3.135359999999999925e+00 -9.241800000000000015e-02 -3.505789999999999740e-01 2.917060000000000208e+00 -4.538999999999999632e-03 3.883600000000000246e-02 3.058859999999999912e-01 4.167179999999999773e-01 -1.618080000000000074e-01 -8.254359999999999475e-01 2.565459999999999963e-01 2.801999999999999803e-03 4.427960000000000229e-01 2.712589999999999724e-01 7.298399999999999332e-02 -1.276359000000000021e+00 -5.177119999999999500e-01 1.164179999999999937e-01 -9.775899999999999868e-02 -3.325359999999999983e-01 -2.761600000000000166e-02 6.648380000000000400e-01 3.226899999999999769e-01 -3.293064000000000213e+00 2.960840000000000138e-01 -8.432399999999999618e-02 -8.505699999999999372e-02 1.530888999999999944e+00 5.284029000000000309e+00 1.462199999999999889e-01 -3.138810000000000211e-01 2.988313000000000219e+00 -1.829979999999999940e-01 3.089811000000000085e+00 4.274343000000000004e+00 -3.229060000000000263e-01 -3.403089999999999726e-01 2.655546000000000184e+00 -1.156309999999999977e-01 3.262510999999999939e+00 -4.712566999999999950e+00 6.313599999999999768e-02 1.640510000000000024e-01 -2.537046000000000134e+00 -1.544059999999999877e-01 -2.509624000000000077e+00 -4.139434999999999754e+00 -4.218700000000000228e-02 1.101556999999999897e+00 -1.630649999999999933e+00 -2.742260000000000253e-01 -2.999782000000000171e+00 -9.801670000000000105e-01 5.605271000000000114e+00 -5.902269999999999461e-01
-5.014304000000000094e+00 2.250900000000000123e-02 1.529660999999999937e+00 -2.969942000000000082e+00 5.763000000000000067e-02 -3.146176999999999779e+00 -2.808053000000000132e+00 -7.848239999999999661e-01 1.658865999999999952e+00 -2.415976999999999819e+00 -4.742799999999999794e-02 -2.704477999999999938e+00 4.346852000000000160e+00 2.077000000000000027e-02 -1.028896999999999951e+00 2.644591000000000136e+00 -3.513899999999999663e-02 1.939273999999999942e+00 4.323038000000000380e+00 -9.689100000000000490e-02 -3.076223000000000152e+00 -9.722500000000000586e-02 -2.922199999999999798e-01 2.555709999999999926e+00 -1.713010000000000088e-01 4.671700000000000158e-02 3.122260000000000035e-01 3.625709999999999766e-01 -1.984339999999999993e-01 -8.689289999999999514e-01 3.528390000000000137e-01 -9.277999999999999789e-03 4.387679999999999914e-01 2.650040000000000173e-01 7.739200000000000246e-02 -1.196754000000000095e+00 -5.532749999999999613e-01 1.399289999999999978e-01 -8.460800000000000265e-02 -2.776150000000000007e-01 -3.591300000000000048e-02 6.386439999999999895e-01 5.836170000000000524e-01 -2.360218000000000149e+00 4.043180000000000107e-01 -2.642699999999999910e-02 -1.024589999999999945e-01 1.717994999999999939e+00 4.855261999999999745e+00 1.987009999999999887e-01 -3.015660000000000007e-01 2.786343000000000014e+00 -2.279180000000000095e-01 2.881508000000000180e+00 4.031517000000000017e+00 -2.692229999999999901e-01 -2.884999999999999787e-01 2.464739999999999931e+00 -1.395119999999999971e-01 3.106081999999999788e+00 -4.181612000000000329e+00 8.108700000000000629e-02 1.267890000000000128e-01 -2.233115000000000183e+00 -1.931370000000000031e-01 -2.216279999999999806e+00 -3.704444000000000070e+00 3.143399999999999667e-02 1.066653000000000073e+00 -1.463114000000000026e+00 -2.690850000000000186e-01 -2.835024999999999906e+00 -1.082864999999999966e+00 4.400023000000000017e+00 -6.420989999999999753e-01
-4.512610999999999706e+00 1.541900000000000041e-02 1.550737999999999950e+00 -2.647336000000000134e+00 7.199700000000000544e-02 -2.933980000000000032e+00 -2.798691999999999958e+00 -6.791160000000000529e-01 1.490077000000000096e+00 -2.305229999999999890e+00 -5.957799999999999901e-02 -2.513825000000000198e+00 3.814052999999999916e+00 2.304000000000000145e-02 -9.330840000000000245e-01 2.387878000000000167e+00 -3.329499999999999821e-02 1.577823999999999893e+00 3.792721999999999927e+00 -6.347099999999999964e-02 -3.018990000000000062e+00 -1.099070000000000047e-01 -2.317430000000000045e-01 2.177815999999999974e+00 -3.415900000000000047e-01 5.240700000000000219e-02 3.217470000000000052e-01 3.024709999999999899e-01 -2.301239999999999952e-01 -9.102259999999999796e-01 4.444549999999999890e-01 -1.871600000000000000e-02 4.332260000000000000e-01 2.528139999999999832e-01 7.943899999999999573e-02 -1.112025999999999959e+00 -5.813490000000000046e-01 1.597939999999999916e-01 -7.211199999999999555e-02 -2.194059999999999899e-01 -4.377299999999999941e-02 6.120109999999999717e-01 8.050000000000000488e-01 -1.631906000000000079e+00 5.023300000000000542e-01 3.511899999999999744e-02 -1.163450000000000040e-01 1.895127999999999924e+00 4.353303000000000367e+00 2.480529999999999957e-01 -2.838829999999999965e-01 2.542368999999999879e+00 -2.711930000000000174e-01 2.649710999999999927e+00 3.734375000000000000e+00 -2.092870000000000008e-01 -2.378639999999999921e-01 2.244219000000000186e+00 -1.609730000000000050e-01 2.915808000000000177e+00 -3.595120999999999789e+00 9.998500000000000443e-02 8.121499999999999553e-02 -1.911855000000000082e+00 -2.279150000000000065e-01 -1.904592999999999980e+00 -3.223965000000000192e+00 1.003310000000000035e-01 1.030899999999999928e+00 -1.277706000000000008e+00 -2.631859999999999755e-01 -2.643451999999999913e+00 -1.159663000000000110e+00 3.378244000000000025e+00 -6.831270000000000397e-01
-3.976125999999999827e+00 2.354000000000000190e-03 1.554564000000000057e+00 -2.308145999999999809e+00 8.425900000000000056e-02 -2.703187999999999924e+00 -2.738424999999999887e+00 -5.695090000000000430e-01 1.321077000000000057e+00 -2.182599000000000178e+00 -6.784700000000000453e-02 -2.290789999999999882e+00 3.265465999999999980e+00 2.516799999999999940e-02 -8.312850000000000517e-01 2.133007999999999793e+00 -3.028199999999999989e-02 1.220850999999999908e+00 3.248196000000000083e+00 -3.405899999999999900e-02 -2.964621000000000173e+00 -1.225350000000000050e-01 -1.722829999999999917e-01 1.806829000000000018e+00 -5.066040000000000543e-01 5.648000000000000242e-02 3.316490000000000271e-01 2.405609999999999971e-01 -2.567369999999999930e-01 -9.452439999999999731e-01 5.265779999999999905e-01 -2.630100000000000146e-02 4.262319999999999998e-01 2.369880000000000042e-01 8.013000000000000678e-02 -1.021848000000000090e+00 -5.983309999999999462e-01 1.754549999999999998e-01 -6.006500000000000034e-02 -1.602780000000000038e-01 -5.157799999999999885e-02 5.842749999999999888e-01 9.816399999999999570e-01 -1.070098999999999911e+00 5.871650000000000480e-01 9.706199999999999550e-02 -1.278330000000000022e-01 2.051801999999999904e+00 3.807345000000000201e+00 2.908950000000000147e-01 -2.624480000000000146e-01 2.270868000000000109e+00 -3.109250000000000069e-01 2.405584999999999862e+00 3.402575000000000127e+00 -1.459519999999999984e-01 -1.879300000000000137e-01 2.005551000000000084e+00 -1.803919999999999968e-01 2.698367000000000182e+00 -2.986365999999999854e+00 1.181880000000000014e-01 2.999200000000000130e-02 -1.593863999999999947e+00 -2.593730000000000202e-01 -1.593158999999999992e+00 -2.724346000000000156e+00 1.599829999999999863e-01 9.959700000000000220e-01 -1.087013000000000007e+00 -2.552639999999999909e-01 -2.437084000000000028e+00 -1.214279000000000108e+00 2.587009999999999810e+00 -7.180010000000000003e-01
-3.443792000000000186e+00 -1.311099999999999939e-02 1.538723000000000063e+00 -1.962806000000000051e+00 9.994400000000000506e-02 -2.470410999999999913e+00 -2.629713000000000189e+00 -4.656060000000000199e-01 1.162560999999999956e+00 -2.061155999999999988e+00 -7.945000000000000673e-02 -2.058838000000000168e+00 2.735451999999999995e+00 2.545299999999999993e-02 -7.253129999999999855e-01 1.900231000000000003e+00 -2.869000000000000022e-02 8.847319999999999629e-01 2.725474000000000174e+00 -6.989000000000000420e-03 -2.910715999999999859e+00 -1.260749999999999926e-01 -1.128529999999999950e-01 1.458625000000000060e+00 -6.576699999999999768e-01 5.855500000000000288e-02 3.414619999999999878e-01 1.791580000000000117e-01 -2.774369999999999892e-01 -9.699379999999999669e-01 5.945869999999999767e-01 -3.134200000000000180e-02 4.180809999999999804e-01 2.168509999999999882e-01 8.031699999999999950e-02 -9.291679999999999939e-01 -6.046589999999999465e-01 1.878650000000000042e-01 -4.916700000000000237e-02 -1.047130000000000005e-01 -5.739400000000000057e-02 5.580060000000000020e-01 1.106112999999999902e+00 -6.489620000000000388e-01 6.532949999999999591e-01 1.540330000000000032e-01 -1.364190000000000125e-01 2.174649000000000054e+00 3.247867999999999977e+00 3.251560000000000006e-01 -2.389910000000000090e-01 1.990917000000000048e+00 -3.446170000000000067e-01 2.162148000000000181e+00 3.055832000000000104e+00 -8.602799999999999336e-02 -1.411560000000000037e-01 1.766815999999999942e+00 -1.937470000000000026e-01 2.470671999999999979e+00 -2.391001000000000154e+00 1.360740000000000005e-01 -2.510300000000000031e-02 -1.292720000000000091e+00 -2.842520000000000047e-01 -1.301218999999999903e+00 -2.235237000000000140e+00 2.114870000000000083e-01 9.597959999999999825e-01 -9.014919999999999600e-01 -2.481349999999999945e-01 -2.226973000000000091e+00 -1.245187999999999962e+00 1.914946000000000037e+00 -7.414669999999999872e-01
-2.941648999999999958e+00 -2.986000000000000112e-02 1.503544999999999909e+00 -1.635586999999999902e+00 1.126100000000000018e-01 -2.246027999999999913e+00 -2.485673999999999939e+00 -3.703239999999999865e-01 1.014834999999999932e+00 -1.939078999999999997e+00 -8.746400000000000008e-02 -1.823997000000000090e+00 2.235443000000000069e+00 2.648000000000000007e-02 -6.239120000000000221e-01 1.691011000000000042e+00 -3.047400000000000109e-02 5.848250000000000393e-01 2.238461000000000034e+00 1.432600000000000019e-02 -2.856484000000000023e+00 -1.225920000000000065e-01 -5.868899999999999811e-02 1.154363000000000028e+00 -7.858739999999999615e-01 5.925500000000000211e-02 3.501340000000000008e-01 1.218140000000000056e-01 -2.929510000000000169e-01 -9.804509999999999614e-01 6.438350000000000461e-01 -3.425299999999999873e-02 4.093499999999999917e-01 1.947200000000000042e-01 7.761999999999999456e-02 -8.395129999999999537e-01 -6.037230000000000096e-01 1.965939999999999910e-01 -3.893499999999999739e-02 -5.375800000000000023e-02 -6.171000000000000096e-02 5.276499999999999524e-01 1.183631000000000100e+00 -3.175819999999999754e-01 7.030429999999999735e-01 2.042509999999999881e-01 -1.425539999999999863e-01 2.259898999999999880e+00 2.704865999999999993e+00 3.512230000000000074e-01 -2.126349999999999907e-01 1.720169999999999977e+00 -3.721949999999999981e-01 1.931076999999999932e+00 2.709661000000000097e+00 -3.115400000000000114e-02 -9.887500000000000455e-02 1.535849999999999937e+00 -2.041000000000000036e-01 2.241317000000000004e+00 -1.836489999999999956e+00 1.525900000000000034e-01 -7.888900000000000079e-02 -1.021994999999999987e+00 -3.036889999999999867e-01 -1.037630000000000052e+00 -1.777396999999999894e+00 2.537119999999999931e-01 9.236910000000000398e-01 -7.288700000000000179e-01 -2.394550000000000012e-01 -2.023066000000000031e+00 -1.256323999999999996e+00 1.321908000000000083e+00 -7.537160000000000526e-01
-2.482311999999999852e+00 -4.484799999999999898e-02 1.454685999999999924e+00 -1.338799000000000072e+00 1.244119999999999948e-01 -2.039509999999999934e+00 -2.320016999999999996e+00 -2.866480000000000139e-01 8.825779999999999736e-01 -1.824370000000000047e+00 -9.502900000000000236e-02 -1.596738999999999908e+00 1.790011000000000019e+00 2.608399999999999955e-02 -5.267239999999999700e-01 1.513136999999999954e+00 -3.305500000000000105e-02 3.282410000000000050e-01 1.809762000000000093e+00 3.356800000000000062e-02 -2.798254000000000019e+00 -1.087430000000000063e-01 -9.686999999999999431e-03 8.983740000000000059e-01 -8.855920000000000458e-01 5.899700000000000083e-02 3.567989999999999773e-01 7.091799999999999493e-02 -3.034129999999999883e-01 -9.777200000000000335e-01 6.775820000000000176e-01 -3.593099999999999766e-02 3.996640000000000192e-01 1.728379999999999916e-01 7.472499999999999976e-02 -7.501550000000000162e-01 -5.903180000000000094e-01 2.012819999999999887e-01 -2.813500000000000029e-02 -7.919000000000000691e-03 -6.501500000000000334e-02 4.988650000000000029e-01 1.219133999999999940e+00 -4.054200000000000165e-02 7.373380000000000489e-01 2.447739999999999916e-01 -1.470980000000000065e-01 2.301083000000000212e+00 2.199215000000000142e+00 3.707079999999999820e-01 -1.863829999999999931e-01 1.469559999999999977e+00 -3.926999999999999935e-01 1.718614000000000086e+00 2.373587999999999809e+00 1.620299999999999865e-02 -6.225499999999999784e-02 1.322626000000000079e+00 -2.105360000000000009e-01 2.020258000000000109e+00 -1.342105000000000103e+00 1.658179999999999932e-01 -1.288499999999999923e-01 -7.851230000000000153e-01 -3.177490000000000037e-01 -8.098130000000000051e-01 -1.367809000000000053e+00 2.869700000000000029e-01 8.893790000000000306e-01 -5.740060000000000162e-01 -2.301149999999999862e-01 -1.832829000000000041e+00 -1.254876000000000102e+00 8.626340000000000119e-01 -7.605830000000000091e-01
-2.073687000000000058e+00 -5.858499999999999819e-02 1.399642000000000053e+00 -1.075147000000000075e+00 1.354269999999999918e-01 -1.848301999999999889e+00 -2.140769000000000144e+00 -2.150970000000000104e-01 7.631580000000000030e-01 -1.716541000000000095e+00 -1.029980000000000062e-01 -1.385496000000000061e+00 1.406266000000000016e+00 2.547400000000000012e-02 -4.457420000000000271e-01 1.359164999999999957e+00 -3.769900000000000334e-02 1.097289999999999932e-01 1.444504999999999928e+00 4.955999999999999989e-02 -2.734306999999999821e+00 -8.617600000000000260e-02 3.316500000000000004e-02 6.934040000000000203e-01 -9.549959999999999560e-01 5.790100000000000108e-02 3.609669999999999823e-01 2.729300000000000129e-02 -3.103310000000000235e-01 -9.609820000000000029e-01 6.951939999999999786e-01 -3.664699999999999902e-02 3.892369999999999997e-01 1.510330000000000006e-01 7.287499999999999534e-02 -6.648739999999999650e-01 -5.691279999999999673e-01 2.041989999999999916e-01 -1.684899999999999939e-02 3.232600000000000057e-02 -6.763600000000000168e-02 4.705630000000000090e-01 1.222158999999999995e+00 1.889689999999999981e-01 7.606070000000000331e-01 2.754329999999999834e-01 -1.502249999999999974e-01 2.301886000000000099e+00 1.743246999999999991e+00 3.822539999999999827e-01 -1.593350000000000044e-01 1.244085000000000107e+00 -4.085829999999999740e-01 1.525992000000000015e+00 2.058221000000000078e+00 5.628099999999999770e-02 -2.860000000000000042e-02 1.128691000000000111e+00 -2.142370000000000108e-01 1.812456999999999985e+00 -9.127619999999999623e-01 1.778450000000000031e-01 -1.702899999999999969e-01 -5.815620000000000234e-01 -3.270500000000000074e-01 -6.168449999999999767e-01 -1.010335999999999901e+00 3.124460000000000015e-01 8.570550000000000113e-01 -4.381909999999999972e-01 -2.204899999999999916e-01 -1.659240999999999966e+00 -1.244021000000000043e+00 4.879419999999999868e-01 -7.609259999999999913e-01
-2.553830000000000267e-01 -1.102250000000000035e-01 6.134260000000000268e-01 4.203199999999999992e-02 1.691860000000000031e-01 -6.445809999999999595e-01 -3.915790000000000104e-01 2.342199999999999838e-02 1.939600000000000005e-02 -8.733969999999999789e-01 -1.465980000000000061e-01 -1.185959999999999931e-01 -3.883260000000000045e-01 1.544399999999999940e-02 -1.817739999999999911e-01 9.013039999999999941e-01 -1.047420000000000018e-01 -5.315469999999999917e-01 1.078579999999999955e-01 5.140800000000000231e-02 -1.891766000000000059e+00 3.125870000000000037e-01 1.796149999999999969e-01 4.605449999999999822e-01 -4.009429999999999938e-01 6.052699999999999747e-02 3.554740000000000122e-01 -1.619200000000000084e-01 -2.870090000000000141e-01 -3.824250000000000149e-01 5.157239999999999602e-01 -4.374000000000000110e-02 2.819749999999999757e-01 5.390899999999999859e-02 6.443400000000000516e-02 1.665639999999999898e-01 -1.562630000000000130e-01 1.873519999999999908e-01 7.188200000000000145e-02 2.257619999999999905e-01 -5.260100000000000192e-02 2.675600000000000200e-01 4.822839999999999905e-01 9.031689999999999996e-01 5.793739999999999446e-01 2.501079999999999970e-01 -1.532560000000000033e-01 1.012772999999999923e+00 -6.176920000000000188e-01 3.421239999999999837e-01 4.102299999999999697e-02 6.744999999999999607e-02 -4.391320000000000223e-01 4.210949999999999971e-01 -2.790679999999999827e-01 1.599319999999999908e-01 1.839979999999999949e-01 8.883000000000000618e-02 -1.335689999999999933e-01 4.402050000000000129e-01 5.516109999999999625e-01 1.558350000000000013e-01 -3.368280000000000163e-01 2.770699999999999830e-01 -2.779249999999999776e-01 3.057999999999999954e-02 4.131540000000000212e-01 4.269249999999999989e-01 6.906870000000000509e-01 1.523359999999999992e-01 -1.424759999999999915e-01 -9.655369999999999786e-01 -9.144630000000000258e-01 -8.449079999999999924e-01 -5.937000000000000055e-01
-4.406999999999999806e-02 -9.311700000000000532e-02 1.094490000000000046e-01 1.631819999999999937e-01 1.518829999999999902e-01 -6.014300000000000201e-02 3.358280000000000154e-01 -4.806799999999999962e-02 -3.761860000000000204e-01 -4.134120000000000017e-01 -1.629549999999999887e-01 2.481770000000000087e-01 -2.942000000000000171e-01 1.428699999999999935e-02 -2.025280000000000136e-01 1.051093999999999973e+00 -1.697569999999999912e-01 -1.691699999999999871e-01 2.714980000000000171e-01 -8.059999999999999457e-03 -3.033319999999999905e-01 2.948200000000000265e-01 8.024399999999999589e-02 6.095810000000000395e-01 1.897290000000000088e-01 8.403399999999999759e-02 2.636359999999999815e-01 -1.865420000000000134e-01 -2.176410000000000011e-01 9.324200000000000543e-02 -7.195699999999999319e-02 -5.919100000000000056e-02 1.272770000000000012e-01 7.470899999999999763e-02 6.890699999999999603e-02 7.226660000000000306e-01 -2.003200000000000119e-02 1.590699999999999892e-01 3.649600000000000066e-02 1.936110000000000053e-01 -2.096299999999999900e-02 5.958900000000000308e-02 -2.665390000000000259e-01 4.077839999999999798e-01 3.144750000000000045e-01 9.651800000000000657e-02 -1.165670000000000039e-01 -7.907229999999999537e-01 -7.824499999999999789e-01 2.165900000000000047e-01 1.356989999999999863e-01 -2.534779999999999811e-01 -3.461400000000000032e-01 -7.872700000000000531e-02 -1.096824000000000021e+00 6.575000000000000289e-02 2.757530000000000259e-01 -1.462509999999999921e-01 -5.562600000000000183e-02 -6.829699999999999660e-02 3.547600000000000059e-02 6.496000000000000385e-02 -2.998759999999999759e-01 3.131849999999999912e-01 -9.763900000000000357e-02 -1.284679999999999989e-01 6.249139999999999695e-01 3.539120000000000044e-01 4.716080000000000272e-01 3.983240000000000114e-01 -9.239799999999999403e-02 -6.741679999999999895e-01 -4.679380000000000206e-01 -1.956340000000000023e-01 -3.273199999999999998e-01
-5.663200000000000178e-02 -7.460200000000000164e-02 6.167000000000000259e-02 1.949019999999999919e-01 1.461480000000000001e-01 1.085949999999999971e-01 3.031340000000000146e-01 -8.403800000000000159e-02 -4.855189999999999784e-01 -3.702469999999999928e-01 -1.671449999999999880e-01 2.513409999999999811e-01 3.559799999999999770e-02 1.588399999999999881e-02 -2.051280000000000048e-01 1.119564000000000004e+00 -1.893330000000000013e-01 4.207600000000000229e-02 3.731789999999999830e-01 -1.798800000000000052e-02 3.944090000000000096e-01 1.703600000000000114e-01 1.585800000000000057e-02 4.829430000000000112e-01 1.625870000000000093e-01 9.569400000000000128e-02 2.077289999999999970e-01 -1.928670000000000107e-01 -1.811250000000000082e-01 1.156480000000000008e-01 -3.308180000000000009e-01 -7.064499999999999946e-02 4.634300000000000225e-02 1.000489999999999990e-01 6.904799999999999827e-02 8.375209999999999599e-01 -6.334199999999999553e-02 1.464449999999999918e-01 -3.392300000000000176e-02 1.314659999999999995e-01 -7.663999999999999806e-03 1.559999999999999972e-04 -3.979449999999999932e-01 1.464080000000000104e-01 2.785610000000000031e-01 6.203000000000000180e-02 -9.279900000000000648e-02 -1.321663999999999950e+00 -6.556100000000000261e-01 1.465400000000000036e-01 1.559599999999999875e-01 -3.326350000000000140e-01 -2.832379999999999898e-01 -2.323500000000000010e-01 -1.060194000000000081e+00 1.075899999999999947e-02 2.995550000000000157e-01 -1.471530000000000060e-01 -3.974199999999999955e-02 -9.670900000000000329e-02 -2.573050000000000059e-01 2.661399999999999877e-02 -2.758889999999999953e-01 2.466440000000000021e-01 -4.493999999999999731e-03 -2.379149999999999876e-01 7.422079999999999789e-01 2.800329999999999764e-01 3.491779999999999884e-01 5.265600000000000280e-01 -7.896000000000000241e-02 -4.853529999999999789e-01 -2.928680000000000172e-01 1.955020000000000091e-01 -2.590520000000000045e-01