4.871234460999796845e+00 -6.283817993103865684e-02 1.003055797749784483e+00 -6.283817993103865684e-02 1.987284131849202495e+01 6.108743531488523004e-01 1.003055797749784483e+00 6.108743531488523004e-01 -1.082703689847844686e+01
5.033158193442966777e+00 -5.694681441831312557e-02 1.125031054192148439e+00 -5.694681441831312557e-02 1.876529573458757127e+01 6.573258564843459384e-01 1.125031054192148439e+00 6.573258564843459384e-01 -1.065531742026979067e+01
5.617049836158341414e+00 -8.185097345081378262e-02 1.238624346086254713e+00 -8.185097345081378262e-02 1.614021717039649317e+01 6.667315304891200389e-01 1.238624346086254713e+00 6.667315304891200389e-01 -1.011975988074912003e+01
6.562900602972158381e+00 -1.305678231149495494e-01 1.337336308743056756e+00 -1.305678231149495494e-01 1.230227181558588967e+01 6.377233770164522086e-01 1.337336308743056756e+00 6.377233770164522086e-01 -9.273511099482742992e+00
7.828588237695981000e+00 -1.782627946453890500e-01 1.422197976910351880e+00 -1.782627946453890500e-01 7.695628706977792888e+00 5.801117924143904814e-01 1.422197976910351880e+00 5.801117924143904814e-01 -8.160823161099040490e+00
9.316439137712086094e+00 -1.901444171031332897e-01 1.496060720219260398e+00 -1.901444171031332897e-01 2.757494192031656244e+00 5.155430124182209806e-01 1.496060720219260398e+00 5.155430124182209806e-01 -6.835606546780359949e+00
1.094123269558041400e+01 -1.616966484134601811e-01 1.541038008684457505e+00 -1.616966484134601811e-01 -2.031059706279755517e+00 4.535161084965505518e-01 1.541038008684457505e+00 4.535161084965505518e-01 -5.361127965997677158e+00
1.262844506045394155e+01 -1.064200004072097389e-01 1.570807992450347079e+00 -1.064200004072097389e-01 -6.355490474319762662e+00 3.996129526054832959e-01 1.570807992450347079e+00 3.996129526054832959e-01 -3.836764151591543381e+00
1.428143000181710498e+01 -3.117827101465722381e-02 1.581125665219602627e+00 -3.117827101465722381e-02 -1.005620931624100578e+01 3.588000922335213838e-01 1.581125665219602627e+00 3.588000922335213838e-01 -2.311958988385729885e+00
1.581173645877493072e+01 4.762721258609048380e-02 1.563913062032127543e+00 4.762721258609048380e-02 -1.314419867499648831e+01 3.279587846177891008e-01 1.563913062032127543e+00 3.279587846177891008e-01 -9.123595350771913637e-01
1.717402820358945448e+01 1.188913088130726242e-01 1.538204952281539750e+00 1.188913088130726242e-01 -1.565510524928226666e+01 3.056624292813161503e-01 1.538204952281539750e+00 3.056624292813161503e-01 3.874200052682975071e-01
1.835955700714837135e+01 1.735233311865971018e-01 1.507942342677004888e+00 1.735233311865971018e-01 -1.767165904750286742e+01 2.850655415220298416e-01 1.507942342677004888e+00 2.850655415220298416e-01 1.554846182749098693e+00
2.344381460124461114e+01 2.693308158504917893e-01 1.195582765842055695e+00 2.693308158504917893e-01 -2.557043273228470781e+01 2.244029731014412499e-01 1.195582765842055695e+00 2.244029731014412499e-01 8.173776107406627744e+00
2.314072334920291851e+01 1.366844413345651155e-01 9.579814491751145189e-01 1.366844413345651155e-01 -2.741248527293270243e+01 1.244786747376376290e-01 9.579814491751145189e-01 1.244786747376376290e-01 1.182116499747954030e+01
2.258073596326019228e+01 8.673328008958476609e-02 8.274392645796483370e-01 8.673328008958476609e-02 -2.756495937962341003e+01 3.749084077603892506e-02 8.274392645796483370e-01 3.749084077603892506e-02 1.279418160700886098e+01
1.995415388303369042e+01 -4.347560375259690996e-02 6.093525238852293135e-01 -4.347560375259690996e-02 -2.685972428683865942e+01 -2.377606417523023263e-01 6.093525238852293135e-01 -2.377606417523023263e-01 1.347515716639383854e+01
1.865611043672179292e+01 -1.310128345602688815e-01 6.528281276378262721e-01 -1.310128345602688815e-01 -2.605688335038053083e+01 -4.012263480101184165e-01 6.528281276378262721e-01 -4.012263480101184165e-01 1.388154601343422634e+01
1.769591308693418341e+01 -6.484109769953972924e-01 7.959972830788759612e-01 -6.484109769953972924e-01 -2.395823318145120240e+01 -7.085754256088794278e-01 7.959972830788759612e-01 -7.085754256088794278e-01 1.540911098013014779e+01
1.857144838274190590e+01 -1.624819196387808695e+00 -5.447965631488016491e-01 -1.624819196387808695e+00 -2.257361211748944285e+01 -3.461603021281960402e-01 -5.447965631488016491e-01 -3.461603021281960402e-01 1.055303437811351053e+01
1.837663958641561024e+01 -1.693365609549548401e+00 -7.175983531442224894e-01 -1.693365609549548401e+00 -2.267205670701448739e+01 -3.066678255096301764e-01 -7.175983531442224894e-01 -3.066678255096301764e-01 1.029967452857836996e+01
1.522330130414253269e+01 -2.178691795433740364e+00 -1.499516426381061196e+00 -2.178691795433740364e+00 -2.571747330416775412e+01 -1.728109466095221203e-01 -1.499516426381061196e+00 -1.728109466095221203e-01 1.066744077733980589e+01
1.344981532120729995e+01 -2.349202600581036027e+00 -6.951097089116239358e-01 -2.349202600581036027e+00 -2.902981252766289089e+01 -2.316568427924284579e-01 -6.951097089116239358e-01 -2.316568427924284579e-01 1.359529377472467715e+01
1.351819874663803844e+01 -1.993733684557538854e+00 4.648867918874466931e-01 -1.993733684557538854e+00 -2.893974074607200464e+01 -6.282004983511824125e-01 4.648867918874466931e-01 -6.282004983511824125e-01 1.815207728822880640e+01
1.620948512474940628e+01 -9.641053926860110312e-01 6.730532568646030445e-01 -9.641053926860110312e-01 -2.500854626457739016e+01 -1.233562569811099685e+00 6.730532568646030445e-01 -1.233562569811099685e+00 2.036429511053275832e+01
1.869648011697125511e+01 -6.700682006676049740e-01 3.132386117886663546e-01 -6.700682006676049740e-01 -2.346144474603510233e+01 -1.534626547490782755e+00 3.132386117886663546e-01 -1.534626547490782755e+00 1.952786405090570909e+01
1.841155375598356514e+01 -6.859823959755270151e-01 6.285795821749730061e-01 -6.859823959755270151e-01 -2.507425412736775172e+01 -1.572011171543247654e+00 6.285795821749730061e-01 -1.572011171543247654e+00 1.369259745013271079e+01
1.778053851445766398e+01 -4.720985411535683074e-01 1.546925711551542459e+00 -4.720985411535683074e-01 -2.548057338414096762e+01 -1.411785075354443419e+00 1.546925711551542459e+00 -1.411785075354443419e+00 5.180960595619234610e+00
1.782269556577968928e+01 -1.034907995562291738e+00 1.331216027877800467e+00 -1.034907995562291738e+00 -2.370950474732845947e+01 -1.746759657696588031e+00 1.331216027877800467e+00 -1.746759657696588031e+00 1.820541822801405640e+00
1.788786501966089659e+01 -1.152374535221214247e+00 1.329108175311699558e+00 -1.152374535221214247e+00 -2.263626899646127555e+01 -1.878774225839530354e+00 1.329108175311699558e+00 -1.878774225839530354e+00 2.023999956807714273e+00
1.556815953574553291e+01 -1.169195235325157123e+00 2.080935783289106222e+00 -1.169195235325157123e+00 -1.966250839861852384e+01 -2.526593685563988778e+00 2.080935783289106222e+00 -2.526593685563988778e+00 2.390440327847294544e+00
1.273755710540690878e+01 -6.162602735631903528e-01 2.973927248219395025e+00 -6.162602735631903528e-01 -2.027918071981626724e+01 -2.811122649499687043e+00 2.973927248219395025e+00 -2.811122649499687043e+00 4.672799645489417841e+00
1.083086619449557730e+01 -3.243272714652448933e-03 1.576653574892566523e+00 -3.243272714652448933e-03 -2.509465689490809126e+01 -2.252640610915200625e+00 1.576653574892566523e+00 -2.252640610915200625e+00 9.880559819260106735e+00
1.121527367372457284e+01 1.462549343931612011e-01 -1.640407416233727211e+00 1.462549343931612011e-01 -2.819855861764867910e+01 -1.427680957434162901e+00 -1.640407416233727211e+00 -1.427680957434162901e+00 1.029419521070019883e+01
1.129106663128601973e+01 1.491502557719672772e-01 -3.787457615979288317e+00 1.491502557719672772e-01 -2.785344216952801943e+01 -1.094962564806559069e+00 -3.787457615979288317e+00 -1.094962564806559069e+00 8.856000628955014164e+00
9.876620643873760486e+00 1.664617503917355246e-01 -3.786507159435581915e+00 1.664617503917355246e-01 -2.564172429835399569e+01 -1.132814176178186250e+00 -3.786507159435581915e+00 -1.132814176178186250e+00 5.239555600575767080e+00
8.728372078966556202e+00 1.077696853257296972e-01 -3.162372197745341396e+00 1.077696853257296972e-01 -2.465567050166735541e+01 -9.986771048865807909e-01 -3.162372197745341396e+00 -9.986771048865807909e-01 4.080952736442902129e+00
4.676932941094708696e+00 6.566189658757317638e-01 -1.536267412737721605e+00 6.566189658757317638e-01 -2.547246062404728661e+01 -1.271194422444297534e-01 -1.536267412737721605e+00 -1.271194422444297534e-01 3.572061088507808346e+00
2.921994595682910312e+00 1.884808434532234900e+00 -1.842023239482869945e+00 1.884808434532234900e+00 -2.893071049324538180e+01 7.465826994202272582e-01 -1.842023239482869945e+00 7.465826994202272582e-01 7.062481805689131420e+00
3.617822183140070091e+00 2.142321724223690715e+00 -1.398011696423386852e+00 2.142321724223690715e+00 -3.041857787516686784e+01 1.064914219971992759e+00 -1.398011696423386852e+00 1.064914219971992759e+00 1.007368379859177487e+01
6.508891230357517266e+00 2.307309259745129904e+00 -8.843934042892424019e-01 2.307309259745129904e+00 -3.022474151125812014e+01 1.702097356756472779e+00 -8.843934042892424019e-01 1.702097356756472779e+00 1.139110630298749882e+01
7.290133545473685750e+00 1.434881718763362901e+00 -5.520009871236422061e-01 1.434881718763362901e+00 -2.586027253239911516e+01 2.410203963723369647e+00 -5.520009871236422061e-01 2.410203963723369647e+00 8.591367156138447925e+00
8.437389533412318343e+00 7.189223995432590664e-02 -9.946481946820435738e-01 7.189223995432590664e-02 -2.184613011508436031e+01 3.028956667644912226e+00 -9.946481946820435738e-01 3.028956667644912226e+00 6.158604957915310152e+00
1.034759475281569863e+01 -3.055195861013371150e-01 -2.461477340044566198e+00 -3.055195861013371150e-01 -2.357238445116267656e+01 2.548921173388405848e+00 -2.461477340044566198e+00 2.548921173388405848e+00 2.607329383417273938e+00
1.176584256640278525e+01 2.603207075748903976e-01 -3.651441607474112949e+00 2.603207075748903976e-01 -2.438367511111340846e+01 1.654808938892127435e+00 -3.651441607474112949e+00 1.654808938892127435e+00 1.535117342006608210e+00
1.148963330203945610e+01 3.848524906743151508e-01 -3.565402398733400702e+00 3.848524906743151508e-01 -2.353795191949643950e+01 1.762413805164035230e+00 -3.565402398733400702e+00 1.762413805164035230e+00 5.205661477818687821e+00
8.369868661029913781e+00 -6.457390770006610214e-01 -2.905485220458409401e+00 -6.457390770006610214e-01 -2.274444157280745671e+01 3.533255357946833985e+00 -2.905485220458409401e+00 3.533255357946833985e+00 9.258303794783437013e+00
5.630204227976155273e+00 -1.018882089562334947e+00 -3.914959804693149970e+00 -1.018882089562334947e+00 -2.435141819095763083e+01 4.680765899757480142e+00 -3.914959804693149970e+00 4.680765899757480142e+00 5.529496123445286848e+00
5.730782308586786833e+00 -6.670593372739437588e-02 -5.397424784294917011e+00 -6.670593372739437588e-02 -2.948580275328959033e+01 3.666835707101085529e+00 -5.397424784294917011e+00 3.666835707101085529e+00 1.131502949038891259e+00
6.787378660309229872e+00 2.307666367695077714e+00 -6.081009978698744156e+00 2.307666367695077714e+00 -3.008285428179124210e+01 2.419763468845044230e+00 -6.081009978698744156e+00 2.419763468845044230e+00 2.469789714325655083e+00
6.041907573840891388e+00 4.190209455898671109e+00 -5.184458422205900696e+00 4.190209455898671109e+00 -2.849327523043339383e+01 2.090442180048993404e+00 -5.184458422205900696e+00 2.090442180048993404e+00 7.694125190942372683e+00
3.933485466342739212e+00 3.589526414244477159e+00 -4.590430407680474723e+00 3.589526414244477159e+00 -2.973186844403170070e+01 1.562497449492078694e+00 -4.590430407680474723e+00 1.562497449492078694e+00 4.182349418354182724e+00
4.358665516841652376e+00 1.914140732144085977e+00 -4.093352623258776468e+00 1.914140732144085977e+00 -3.128451520807368880e+01 6.898190172839384626e-01 -4.093352623258776468e+00 6.898190172839384626e-01 -1.934470246771616830e+00
7.071048733842233425e+00 1.433521045907921732e+00 -4.005608452972416522e+00 1.433521045907921732e+00 -3.042375319345687501e+01 -5.386286678902191954e-02 -4.005608452972416522e+00 -5.386286678902191954e-02 -5.076785796989644162e+00
1.011684258349647081e+01 2.051577847157771473e+00 -3.538683398786037770e+00 2.051577847157771473e+00 -2.827142878398901260e+01 -1.118590291833349570e-01 -3.538683398786037770e+00 -1.118590291833349570e-01 -4.242376517756146548e+00
1.040900266962412601e+01 2.494624283090986161e+00 -1.928086255420245587e+00 2.494624283090986161e+00 -2.568326053123995578e+01 3.789904263267135365e-01 -1.928086255420245587e+00 3.789904263267135365e-01 -2.383614987696244469e+00
8.916276788260530495e+00 1.898852849240687757e+00 -4.639601425404030755e-01 1.898852849240687757e+00 -2.157025415147431602e+01 6.915697619000918950e-01 -4.639601425404030755e-01 6.915697619000918950e-01 6.884675010425982400e-01
8.755493969934372345e+00 2.129839427880906744e+00 6.305336036241735442e-01 2.129839427880906744e+00 -2.205997917477273518e+01 1.342733217094316256e+00 6.305336036241735442e-01 1.342733217094316256e+00 1.901414869866209223e+00
9.742714319257505196e+00 2.611067113293392250e+00 1.174665396589226418e+00 2.611067113293392250e+00 -2.368262642229573700e+01 2.167725834386118322e+00 1.174665396589226418e+00 2.167725834386118322e+00 1.130217360419079942e+00
1.272944617663604738e+01 2.305668394498191276e+00 1.607844665166965559e+00 2.305668394498191276e+00 -2.202936861383235367e+01 1.820054690931220964e+00 1.607844665166965559e+00 1.820054690931220964e+00 -2.529271079527185773e+00
1.302899015637492930e+01 7.290789159043332690e-01 2.804425501946054222e+00 7.290789159043332690e-01 -1.598060273602964720e+01 4.905765884098320928e-01 2.804425501946054222e+00 4.905765884098320928e-01 -6.195000667644843695e+00
1.186838016243107496e+01 3.005438819987336641e-01 3.765161260642815755e+00 3.005438819987336641e-01 -1.144642140877297365e+01 1.196806089485978747e-01 3.765161260642815755e+00 1.196806089485978747e-01 -6.079316005090017683e+00
9.596061987812351646e+00 7.626690390732521196e-01 4.786033998110756471e+00 7.626690390732521196e-01 -1.389616729483105395e+01 -2.549329558377320115e-01 4.786033998110756471e+00 -2.549329558377320115e-01 -2.175190306201433721e+00
7.683679325575699437e+00 1.392034258738109820e+00 4.878301535763118757e+00 1.392034258738109820e+00 -2.068356060572284605e+01 -5.192349592238333367e-01 4.878301535763118757e+00 -5.192349592238333367e-01 1.624115968424834966e+00
8.508014497975034729e+00 1.588756787411560234e+00 3.711322201050456737e+00 1.588756787411560234e+00 -2.297880327940538692e+01 -8.632745895261865199e-01 3.711322201050456737e+00 -8.632745895261865199e-01 2.383950119772348941e+00
9.761067836561993616e+00 1.516256548280913163e+00 2.238297690587048194e+00 1.516256548280913163e+00 -2.144147736207756338e+01 -7.390083482356972766e-01 2.238297690587048194e+00 -7.390083482356972766e-01 1.332477809300948834e+00
1.061888325276103195e+01 8.805622769492916779e-01 -3.832815819591096851e+00 8.805622769492916779e-01 -2.490965300096138435e+01 -1.081537137211349142e+00 -3.832815819591096851e+00 -1.081537137211349142e+00 -1.180309533521219034e+00
6.766798254455325790e+00 8.245457745236626224e-01 -3.282979456040982846e+00 8.245457745236626224e-01 -2.573118991209138429e+01 -1.157586479967629201e+00 -3.282979456040982846e+00 -1.157586479967629201e+00 -6.787724780322255125e-01
4.450652862102517204e+00 1.458366602610174478e+00 -2.853045291500717173e+00 1.458366602610174478e+00 -2.700781420669770583e+01 -3.032395891901331075e-01 -2.853045291500717173e+00 -3.032395891901331075e-01 8.149917633704486519e-01
4.654746465127450605e+00 1.081386968740089216e+00 -2.829586046173389047e+00 1.081386968740089216e+00 -2.501446509993241918e+01 6.243162626494445089e-01 -2.829586046173389047e+00 6.243162626494445089e-01 2.395090056487894525e+00
5.372659805796755172e+00 1.632001644488806358e-01 -2.791703302313817581e+00 1.632001644488806358e-01 -2.310604175763313251e+01 -2.453972579127205837e-03 -2.791703302313817581e+00 -2.453972579127205837e-03 1.342114229981073770e+00
4.926132025182256235e+00 -1.967371792560123622e-01 -2.432060801582984322e+00 -1.967371792560123622e-01 -2.593424515507723882e+01 -1.262307012797652561e+00 -2.432060801582984322e+00 -1.262307012797652561e+00 1.607293436998072034e+00
5.127709390652174015e+00 2.038262298931775920e-03 -1.643509677091220755e+00 2.038262298931775920e-03 -2.809201042464404807e+01 -1.486131287887896280e+00 -1.643509677091220755e+00 -1.486131287887896280e+00 4.569276797783834887e+00
7.061525855176963518e+00 3.477370710764262629e-01 -6.693997678382158645e-01 3.477370710764262629e-01 -2.682839218470710207e+01 -1.122989129247575990e+00 -6.693997678382158645e-01 -1.122989129247575990e+00 4.853336943077549925e+00
9.105862651903489535e+00 7.168749806302260330e-01 -2.888856809250591740e-01 7.168749806302260330e-01 -2.449263149362665715e+01 -1.480380934232329748e+00 -2.888856809250591740e-01 -1.480380934232329748e+00 2.910957213045298531e+00
8.920280059945584483e+00 3.109000125472145548e-01 -1.193601274550551289e-01 3.109000125472145548e-01 -2.413575795300003080e+01 -2.640143025710409042e+00 -1.193601274550551289e-01 -2.640143025710409042e+00 1.808883621727731539e+00
7.961002034213737311e+00 -2.650565083880418449e-01 -8.010187702519855346e-01 -2.650565083880418449e-01 -2.626600027190139386e+01 -3.482003957499480329e+00 -8.010187702519855346e-01 -3.482003957499480329e+00 3.620527046945570593e+00
8.511638685836297569e+00 -1.377136447595423419e-01 -1.699800877939886545e+00 -1.377136447595423419e-01 -2.512389945770174648e+01 -3.057294556965370891e+00 -1.699800877939886545e+00 -3.057294556965370891e+00 5.026255937733466794e+00
1.095027759898959907e+01 5.242564463969427990e-01 -1.227151108617424713e+00 5.242564463969427990e-01 -1.906721494002430717e+01 -1.663899625371819679e+00 -1.227151108617424713e+00 -1.663899625371819679e+00 2.771531281448828210e+00
1.395988450971581152e+01 5.923340409167000553e-01 -9.893391898261555406e-01 5.923340409167000553e-01 -1.451246602617347214e+01 -2.965644175103430633e-02 -9.893391898261555406e-01 -2.965644175103430633e-02 2.554530515186814177e-01
1.397030107391736209e+01 -2.364091255109621315e-01 -1.619325227927076227e+00 -2.364091255109621315e-01 -1.875516851939162066e+01 1.257620657700647460e+00 -1.619325227927076227e+00 1.257620657700647460e+00 -1.955193495805499782e-01
1.299710682607447865e+01 -7.880566673302972225e-01 -1.707761638239488233e+00 -7.880566673302972225e-01 -2.587622152284061983e+01 2.350391129091374598e+00 -1.707761638239488233e+00 2.350391129091374598e+00 4.444821930242859875e-01
1.236946854382910921e+01 -3.589850558383660406e-01 -7.995353987675878349e-01 -3.589850558383660406e-01 -2.975447246160197778e+01 3.199863038521380876e+00 -7.995353987675878349e-01 3.199863038521380876e+00 1.974023157043250709e+00
1.184023089936110296e+01 8.729293234345139041e-01 1.763453996525933820e-01 8.729293234345139041e-01 -2.764948408439178351e+01 3.531303167820454281e+00 1.763453996525933820e-01 3.531303167820454281e+00 4.388838391627994717e+00
1.188825917164482604e+01 1.120093807868770108e+00 2.612180557568100636e-01 1.120093807868770108e+00 -2.587598528219681171e+01 3.781264082201222898e+00 2.612180557568100636e-01 3.781264082201222898e+00 6.324114420440519524e+00
8.401794111755231498e+00 8.482778869512068720e-01 1.209491662661810185e+00 8.482778869512068720e-01 -2.531869360344548170e+01 1.990902459477441155e+00 1.209491662661810185e+00 1.990902459477441155e+00 -2.386719079876558069e+00
8.491525267301556212e+00 2.013543103504120246e+00 1.740108293213461055e+00 2.013543103504120246e+00 -2.387636023212654379e+01 1.792612318469861687e+00 1.740108293213461055e+00 1.792612318469861687e+00 -2.040403115308641713e+00
7.748491671506960721e+00 2.997261963594946454e+00 2.617549996077056740e+00 2.997261963594946454e+00 -2.254735277956995887e+01 2.101360526703289544e+00 2.617549996077056740e+00 2.101360526703289544e+00 6.889418136530415238e-01
6.490089038962069345e+00 2.846179662247621422e+00 2.530780089531067034e+00 2.846179662247621422e+00 -1.958889105256752572e+01 1.619631058838056914e+00 2.530780089531067034e+00 1.619631058838056914e+00 3.297999965812625778e+00
6.163576999372272880e+00 2.601866547444485533e+00 1.489749981780698951e+00 2.601866547444485533e+00 -1.929932411955333649e+01 4.756714519758646897e-01 1.489749981780698951e+00 4.756714519758646897e-01 5.675104600882902695e+00
6.789684295739917275e+00 3.419684041926571272e+00 2.880414411049266321e-01 3.419684041926571272e+00 -2.216051330363567828e+01 -8.166271346489267779e-01 2.880414411049266321e-01 -8.166271346489267779e-01 4.522587222481709190e+00
6.747629798495830222e+00 3.872923620677264811e+00 -4.997899735184805903e-01 3.872923620677264811e+00 -2.611196587816783676e+01 -2.795067442334606245e+00 -4.997899735184805903e-01 -2.795067442334606245e+00 -9.357601780742715869e-01
7.305784030295491505e+00 3.389765721012241606e+00 -1.054331005393801535e+00 3.389765721012241606e+00 -2.544461902321111424e+01 -3.122194806392004640e+00 -1.054331005393801535e+00 -3.122194806392004640e+00 1.195524163511807736e-01
6.534480304124788752e+00 2.542795398554689168e+00 -2.635319321401885961e+00 2.542795398554689168e+00 -2.445318296875577957e+01 -2.032281198600858652e+00 -2.635319321401885961e+00 -2.032281198600858652e+00 4.538684550071654833e+00
6.540968680876914298e+00 2.526322649786592933e+00 -1.878400635984200706e+00 2.526322649786592933e+00 -2.273058578434948984e+01 -6.359213553613318748e-01 -1.878400635984200706e+00 -6.359213553613318748e-01 6.151391377326369536e+00
5.449926978228497809e+00 2.789679690597448136e+00 -1.271536879811683063e+00 2.789679690597448136e+00 -2.332659345884360036e+01 -4.890547591462091753e-02 -1.271536879811683063e+00 -4.890547591462091753e-02 5.423874579787703709e+00
7.718161302958077563e+00 3.025044962100871260e+00 -2.656965557137171974e+00 3.025044962100871260e+00 -2.589383518572573095e+01 -5.758411475975810240e-02 -2.656965557137171974e+00 -5.758411475975810240e-02 4.686900831205297990e+00
1.047180239177593997e+01 2.297176550580719123e+00 -3.823164748328409690e+00 2.297176550580719123e+00 -2.740039854231909189e+01 -6.784574905071436568e-01 -3.823164748328409690e+00 -6.784574905071436568e-01 3.679264895082082543e+00
1.111975187542063637e+01 1.477546046506591715e+00 -3.521457976338821183e+00 1.477546046506591715e+00 -2.538184677090160335e+01 -1.650959498323974151e+00 -3.521457976338821183e+00 -1.650959498323974151e+00 5.640785611231525998e+00
9.276248927099008057e+00 1.014179252559947786e+00 -2.581082864757534345e+00 1.014179252559947786e+00 -2.456396334879799070e+01 -1.757716462130108903e+00 -2.581082864757534345e+00 -1.757716462130108903e+00 9.197782238220005624e+00
6.461121174591448302e+00 9.335570967215177651e-01 -1.582988120527791143e+00 9.335570967215177651e-01 -2.792627021544349120e+01 -9.486069076582844817e-01 -1.582988120527791143e+00 -9.486069076582844817e-01 1.072458171197706456e+01
5.574304930211022580e+00 1.920489928361872600e-01 -1.211597683905091039e+00 1.920489928361872600e-01 -2.867374293775435490e+01 -9.120408849064688406e-01 -1.211597683905091039e+00 -9.120408849064688406e-01 5.339719802229023315e+00
4.812903166529379106e+00 -3.698136676744698814e-01 -1.252106544688892376e+00 -3.698136676744698814e-01 -2.538051723053410669e+01 -8.199363349851079841e-01 -1.252106544688892376e+00 -8.199363349851079841e-01 -3.697330894703791948e-01
2.363437472862794042e+00 5.514167951439843396e-01 -1.370195734106697927e+00 5.514167951439843396e-01 -2.118500792639364860e+01 -5.699607700217769191e-01 -1.370195734106697927e+00 -5.699607700217769191e-01 1.757135932796091426e-01
2.756325808072340511e+00 1.759205327582967326e+00 -1.925396042197306867e+00 1.759205327582967326e+00 -2.159999483407508336e+01 -5.978829490620399811e-01 -1.925396042197306867e+00 -5.978829490620399811e-01 3.348683656185703850e+00
4.523581630773101381e+00 2.368358237280789869e+00 -2.057547959551767391e+00 2.368358237280789869e+00 -2.362004096491388694e+01 6.321360110918872177e-02 -2.057547959551767391e+00 6.321360110918872177e-02 5.395556835018268771e+00
6.566063297482720884e+00 2.635264381717278948e+00 -1.798901081034580463e+00 2.635264381717278948e+00 -2.436001075763021717e+01 8.961395088582886359e-01 -1.798901081034580463e+00 8.961395088582886359e-01 4.736560812121859421e+00
1.180141418086320648e+01 -7.116026022307431198e-01 6.505957451199485819e-02 -7.116026022307431198e-01 -2.130049846872952557e+01 2.285619072262158047e-01 6.505957451199485819e-02 2.285619072262158047e-01 -3.142121429999081617e+00
1.337870505609721761e+01 -5.186159721105908504e-01 -5.278824655810263611e-01 -5.186159721105908504e-01 -1.924199089601995283e+01 2.529423079321265963e-02 -5.278824655810263611e-01 2.529423079321265963e-02 -7.193622832846816806e+00
1.139383863663530150e+01 -3.535606776448027566e-01 7.314669608619317476e-02 -3.535606776448027566e-01 -1.969559307668905390e+01 -2.114170629830897374e-01 7.314669608619317476e-02 -2.114170629830897374e-01 -6.991530865664410399e+00
7.421591391479273270e+00 -3.016371817224194340e-01 1.354100237839571896e+00 -3.016371817224194340e-01 -2.328242927771059101e+01 5.551526936972824844e-01 1.354100237839571896e+00 5.551526936972824844e-01 -2.199667767016817432e+00
7.500918802083791803e+00 2.355941868559534580e-01 6.986185234352118023e-01 2.355941868559534580e-01 -2.510615027692794499e+01 1.428655221174532697e+00 6.986185234352118023e-01 1.428655221174532697e+00 1.915527043519010819e+00
9.949206955176958189e+00 1.312891811738437164e+00 -1.217355362851938683e+00 1.312891811738437164e+00 -2.470233810109563777e+01 1.502723072639308821e+00 -1.217355362851938683e+00 1.502723072639308821e+00 4.551533110978488450e-01
1.225326012294769562e+01 2.149729425031579044e+00 -2.541687448248441505e+00 2.149729425031579044e+00 -2.441582581454561662e+01 1.794815399822615509e+00 -2.541687448248441505e+00 1.794815399822615509e+00 -4.769332333990129236e+00
1.382244922602494697e+01 1.153848750091510889e+00 -2.866305900042104948e+00 1.153848750091510889e+00 -2.399468749351098040e+01 2.438298287108735973e+00 -2.866305900042104948e+00 2.438298287108735973e+00 -6.171294193736782674e+00
1.213711396704216838e+01 -4.244731598902980463e-01 -2.424545052728702021e+00 -4.244731598902980463e-01 -2.417893688245575134e+01 2.767985840468835335e+00 -2.424545052728702021e+00 2.767985840468835335e+00 -2.680862488618538375e+00
5.976923083564525285e+00 1.743741637688825508e+00 -1.066452531140997806e+00 1.743741637688825508e+00 -2.312194130235849343e+01 1.951994174838533214e+00 -1.066452531140997806e+00 1.951994174838533214e+00 8.300747212502617600e+00
4.408689930999441842e+00 2.169954554258355373e+00 -9.455815623592411789e-01 2.169954554258355373e+00 -2.595007327821260645e+01 5.998369705112405192e-01 -9.455815623592411789e-01 5.998369705112405192e-01 3.978510369201262886e+00
4.482089349634828856e+00 2.080545711528393849e+00 -1.294780029046222358e+00 2.080545711528393849e+00 -2.817402804847150222e+01 -6.020034254075894431e-01 -1.294780029046222358e+00 -6.020034254075894431e-01 4.957482440542017033e-01
7.533882612848186611e+00 2.331310576627250164e+00 -2.043322243884110545e+00 2.331310576627250164e+00 -2.734993094803880354e+01 -1.643930881339876970e+00 -2.043322243884110545e+00 -1.643930881339876970e+00 2.230203243721569084e-01
1.111832893758930574e+01 3.655505312812235008e+00 -2.304007384700229810e+00 3.655505312812235008e+00 -2.287879657151467327e+01 -1.706983326040884208e+00 -2.304007384700229810e+00 -1.706983326040884208e+00 2.628715571312085331e+00
9.032869786934195844e+00 4.364675918337693084e+00 -1.871959873625401727e+00 4.364675918337693084e+00 -1.997464455406940331e+01 -9.057704355699528476e-01 -1.871959873625401727e+00 -9.057704355699528476e-01 5.847183018364327189e+00
3.672413916411549017e+00 3.325189615724791103e+00 -1.562041450109838081e+00 3.325189615724791103e+00 -2.348198669410977857e+01 -7.298187703237118962e-01 -1.562041450109838081e+00 -7.298187703237118962e-01 7.785792054709695265e+00
1.198761942257999591e+00 2.282820810992824967e+00 -1.116956751877691723e+00 2.282820810992824967e+00 -2.751721313105400668e+01 -1.281640287810970280e+00 -1.116956751877691723e+00 -1.281640287810970280e+00 6.355673606601787817e+00
3.705392377758506051e+00 2.351486260137880535e+00 -9.998985972076835926e-01 2.351486260137880535e+00 -2.611806784580489094e+01 -1.148651455927657938e+00 -9.998985972076835926e-01 -1.148651455927657938e+00 1.568344863257118638e+00
7.211535001351625951e+00 3.339492246950898746e+00 -1.613444850351271942e+00 3.339492246950898746e+00 -2.234948750545667906e+01 -4.445334700632528335e-01 -1.613444850351271942e+00 -4.445334700632528335e-01 -3.112571204971621430e+00
6.363660005420872956e+00 3.484445110818866098e+00 -2.661230707985520638e+00 3.484445110818866098e+00 -2.025906546995870627e+01 1.315109543673752823e-01 -2.661230707985520638e+00 1.315109543673752823e-01 -4.961588266305003714e+00
7.171863055096675765e+00 2.848214261900912980e+00 -3.285329043219356482e+00 2.848214261900912980e+00 -2.013690158726585722e+01 6.800269341640928777e-01 -3.285329043219356482e+00 6.800269341640928777e-01 -1.560048970881412700e+00
9.791539216968036641e+00 1.790722393319369665e+00 -3.197238752919970395e+00 1.790722393319369665e+00 -2.150018224640331255e+01 8.744896104773619561e-01 -3.197238752919970395e+00 8.744896104773619561e-01 3.116402332311571932e+00
1.148930915790027285e+01 9.244480970136232933e-01 -2.596167470827885460e+00 9.244480970136232933e-01 -2.368297071098594131e+01 1.456538942435570805e+00 -2.596167470827885460e+00 1.456538942435570805e+00 6.720103185184738592e+00
8.517595978970552650e+00 -2.769436248142468360e-01 -2.423946210166481929e+00 -2.769436248142468360e-01 -2.593103301485053080e+01 1.712059752898601239e+00 -2.423946210166481929e+00 1.712059752898601239e+00 5.806278591851352644e+00