0.000000000000000000e+00 0.000000000000000000e+00 9.074780000000000513e+00 0.000000000000000000e+00 0.000000000000000000e+00 1.311378000000000021e+01 1.428010000000000002e+00 1.428010000000000002e+00 7.055290000000000283e+00 1.428010000000000002e+00 1.428010000000000002e+00 1.109427999999999948e+01 2.855939999999999923e+00 0.000000000000000000e+00 9.074780000000000513e+00 2.855939999999999923e+00 0.000000000000000000e+00 1.311378000000000021e+01 4.283949999999999925e+00 1.428010000000000002e+00 7.055290000000000283e+00 4.283949999999999925e+00 1.428010000000000002e+00 1.109427999999999948e+01 5.711960000000000370e+00 0.000000000000000000e+00 9.074780000000000513e+00 5.711960000000000370e+00 0.000000000000000000e+00 1.311378000000000021e+01 7.139890000000000292e+00 1.428010000000000002e+00 7.055290000000000283e+00 7.139890000000000292e+00 1.428010000000000002e+00 1.109427999999999948e+01 0.000000000000000000e+00 2.855939999999999923e+00 9.074780000000000513e+00 0.000000000000000000e+00 2.855939999999999923e+00 1.311378000000000021e+01 1.428010000000000002e+00 4.283949999999999925e+00 7.055290000000000283e+00 1.428010000000000002e+00 4.283949999999999925e+00 1.109427999999999948e+01 2.855939999999999923e+00 2.855939999999999923e+00 9.074780000000000513e+00 2.855939999999999923e+00 2.855939999999999923e+00 1.311378000000000021e+01 4.283949999999999925e+00 4.283949999999999925e+00 7.055290000000000283e+00 4.283949999999999925e+00 4.283949999999999925e+00 1.109427999999999948e+01 5.711960000000000370e+00 2.855939999999999923e+00 9.074780000000000513e+00 5.711960000000000370e+00 2.855939999999999923e+00 1.311378000000000021e+01 7.139890000000000292e+00 4.283949999999999925e+00 7.055290000000000283e+00 7.139890000000000292e+00 4.283949999999999925e+00 1.109427999999999948e+01 0.000000000000000000e+00 5.711960000000000370e+00 9.074780000000000513e+00 0.000000000000000000e+00 5.711960000000000370e+00 1.311378000000000021e+01 1.428010000000000002e+00 7.139890000000000292e+00 7.055290000000000283e+00 1.428010000000000002e+00 7.139890000000000292e+00 1.109427999999999948e+01 2.855939999999999923e+00 5.711960000000000370e+00 9.074780000000000513e+00 2.855939999999999923e+00 5.711960000000000370e+00 1.311378000000000021e+01 4.283949999999999925e+00 7.139890000000000292e+00 7.055290000000000283e+00 4.283949999999999925e+00 7.139890000000000292e+00 1.109427999999999948e+01 5.711960000000000370e+00 5.711960000000000370e+00 9.074780000000000513e+00 5.711960000000000370e+00 5.711960000000000370e+00 1.311378000000000021e+01 7.139890000000000292e+00 7.139890000000000292e+00 7.055290000000000283e+00 7.139890000000000292e+00 7.139890000000000292e+00 1.109427999999999948e+01 2.885580000000000034e+00 2.730160000000000142e+00 4.999920000000000364e+00
2.409999999999999816e-03 8.563620000000000232e+00 9.076330000000000453e+00 8.564550000000000551e+00 3.779999999999999940e-03 1.311411000000000016e+01 1.429049999999999931e+00 1.425340000000000051e+00 7.053729999999999833e+00 1.422730000000000050e+00 1.428670000000000107e+00 1.109759000000000029e+01 2.856329999999999814e+00 8.566029999999999589e+00 9.075950000000000628e+00 2.849079999999999835e+00 8.563769999999999882e+00 1.310975000000000001e+01 4.283260000000000289e+00 1.424590000000000023e+00 7.055240000000000400e+00 4.286500000000000199e+00 1.426150000000000029e+00 1.109492000000000012e+01 5.711159999999999570e+00 1.949999999999999910e-03 9.078530000000000655e+00 5.712250000000000050e+00 8.563259999999999650e+00 1.311799000000000071e+01 7.138989999999999725e+00 1.435580000000000078e+00 7.052649999999999864e+00 7.141840000000000188e+00 1.432339999999999947e+00 1.109538000000000046e+01 2.400000000000000061e-04 2.866540000000000088e+00 9.081599999999999895e+00 8.567109999999999559e+00 2.854830000000000201e+00 1.311344000000000065e+01 1.430430000000000090e+00 4.279840000000000089e+00 7.059000000000000163e+00 1.429720000000000102e+00 4.284559999999999924e+00 1.109642000000000017e+01 2.851739999999999942e+00 2.856469999999999843e+00 9.076750000000000540e+00 2.856520000000000170e+00 2.857580000000000009e+00 1.310900999999999961e+01 4.288210000000000299e+00 4.282289999999999708e+00 7.052240000000000286e+00 4.284279999999999866e+00 4.288160000000000416e+00 1.109679000000000038e+01 5.712320000000000064e+00 2.859989999999999810e+00 9.076040000000000774e+00 5.714310000000000223e+00 2.859039999999999804e+00 1.311314999999999920e+01 7.143720000000000070e+00 4.285919999999999952e+00 7.055830000000000268e+00 7.138040000000000163e+00 4.288219999999999921e+00 1.109638999999999953e+01 8.899999999999999491e-04 5.713840000000000252e+00 9.073000000000000398e+00 8.567800000000000082e+00 5.709830000000000183e+00 1.311142000000000074e+01 1.429599999999999982e+00 7.139439999999999564e+00 7.051099999999999923e+00 1.427750000000000075e+00 7.136320000000000441e+00 1.109352999999999945e+01 2.859109999999999818e+00 5.715659999999999741e+00 9.072079999999999700e+00 2.853239999999999998e+00 5.711439999999999628e+00 1.311023999999999923e+01 4.283949999999999925e+00 7.140769999999999840e+00 7.054610000000000269e+00 4.286299999999999777e+00 7.136429999999999829e+00 1.109371999999999936e+01 5.710160000000000124e+00 5.707770000000000010e+00 9.079599999999999227e+00 5.711789999999999701e+00 5.710840000000000138e+00 1.311129999999999995e+01 7.140469999999999651e+00 7.133589999999999876e+00 7.052999999999999936e+00 7.136840000000000295e+00 7.135749999999999815e+00 1.109121000000000024e+01 2.885110000000000063e+00 2.730069999999999997e+00 4.999360000000000248e+00
4.839999999999999684e-03 8.559350000000000236e+00 9.077719999999999345e+00 8.561230000000000118e+00 7.579999999999999932e-03 1.311431999999999931e+01 1.430060000000000109e+00 1.422649999999999970e+00 7.052209999999999646e+00 1.417410000000000059e+00 1.429270000000000040e+00 1.110106000000000037e+01 2.856720000000000148e+00 8.564159999999999329e+00 9.076850000000000307e+00 2.842229999999999812e+00 8.559649999999999537e+00 1.310556000000000054e+01 4.282600000000000406e+00 1.421140000000000070e+00 7.055240000000000400e+00 4.289089999999999847e+00 1.424239999999999950e+00 1.109572999999999965e+01 5.710340000000000416e+00 3.899999999999999821e-03 9.082110000000000127e+00 5.712509999999999977e+00 8.558659999999999712e+00 1.312208000000000041e+01 7.138090000000000046e+00 1.443119999999999958e+00 7.050250000000000128e+00 7.143779999999999575e+00 1.436630000000000074e+00 1.109669000000000061e+01 4.800000000000000122e-04 2.877130000000000187e+00 9.088150000000000617e+00 8.566340000000000288e+00 2.853730000000000100e+00 1.311295999999999928e+01 1.432849999999999957e+00 4.275719999999999743e+00 7.062739999999999796e+00 1.431380000000000097e+00 4.285219999999999807e+00 1.109872999999999976e+01 2.847550000000000026e+00 2.857009999999999827e+00 9.078469999999999374e+00 2.857099999999999973e+00 2.859220000000000095e+00 1.310402000000000022e+01 4.292460000000000164e+00 4.280630000000000379e+00 7.049220000000000041e+00 4.284659999999999691e+00 4.292419999999999902e+00 1.109946000000000055e+01 5.712670000000000137e+00 2.864040000000000141e+00 9.077040000000000219e+00 5.716649999999999565e+00 2.862140000000000128e+00 1.311237000000000030e+01 7.147549999999999848e+00 4.287889999999999979e+00 7.056589999999999918e+00 7.136180000000000412e+00 4.292519999999999669e+00 1.109869999999999912e+01 1.789999999999999925e-03 5.715700000000000003e+00 9.071070000000000633e+00 8.567729999999999180e+00 5.707659999999999734e+00 1.310894000000000048e+01 1.431179999999999897e+00 7.139009999999999856e+00 7.047139999999999738e+00 1.427450000000000108e+00 7.132769999999999833e+00 1.109299999999999997e+01 2.862270000000000092e+00 5.719339999999999868e+00 9.069110000000000227e+00 2.850540000000000074e+00 5.710919999999999774e+00 1.310655999999999999e+01 4.283979999999999677e+00 7.141659999999999897e+00 7.054170000000000051e+00 4.288680000000000270e+00 7.132990000000000386e+00 1.109337999999999980e+01 5.708359999999999879e+00 5.703570000000000029e+00 9.084250000000000824e+00 5.711570000000000036e+00 5.709670000000000023e+00 1.310867999999999967e+01 7.141040000000000276e+00 7.127299999999999969e+00 7.050930000000000142e+00 7.133799999999999919e+00 7.131619999999999848e+00 1.108831999999999951e+01 2.884630000000000027e+00 2.730039999999999800e+00 4.999200000000000088e+00
7.270000000000000420e-03 8.555110000000000881e+00 9.078950000000000742e+00 8.557959999999999567e+00 1.141000000000000000e-02 1.311439999999999984e+01 1.431040000000000090e+00 1.419920000000000071e+00 7.050729999999999720e+00 1.412069999999999936e+00 1.429820000000000091e+00 1.110468999999999973e+01 2.857120000000000104e+00 8.562290000000000845e+00 9.077500000000000568e+00 2.835379999999999789e+00 8.555550000000000210e+00 1.310120000000000040e+01 4.281979999999999897e+00 1.417659999999999920e+00 7.055270000000000152e+00 4.291699999999999626e+00 1.422290000000000054e+00 1.109670000000000023e+01 5.709529999999999994e+00 5.859999999999999758e-03 9.085509999999999309e+00 5.712720000000000020e+00 8.554100000000000037e+00 1.312603000000000009e+01 7.137190000000000367e+00 1.450630000000000086e+00 7.048079999999999679e+00 7.145719999999999850e+00 1.440879999999999939e+00 1.109820999999999991e+01 7.299999999999999632e-04 2.887700000000000156e+00 9.094419999999999504e+00 8.565569999999999240e+00 2.852640000000000065e+00 1.311232000000000042e+01 1.435289999999999955e+00 4.271589999999999776e+00 7.066510000000000069e+00 1.432979999999999920e+00 4.285919999999999952e+00 1.110117999999999938e+01 2.843370000000000175e+00 2.857559999999999878e+00 9.079940000000000566e+00 2.857680000000000220e+00 2.860860000000000181e+00 1.309881999999999991e+01 4.296710000000000029e+00 4.278959999999999653e+00 7.046230000000000437e+00 4.285090000000000288e+00 4.296710000000000029e+00 1.110228999999999999e+01 5.713029999999999831e+00 2.868079999999999963e+00 9.077769999999999229e+00 5.718980000000000175e+00 2.865250000000000075e+00 1.311143000000000036e+01 7.151370000000000005e+00 4.289860000000000007e+00 7.057590000000000252e+00 7.134319999999999773e+00 4.296829999999999927e+00 1.110122999999999927e+01 2.710000000000000169e-03 5.717550000000000132e+00 9.068979999999999819e+00 8.567709999999999937e+00 5.705449999999999910e+00 1.310632000000000019e+01 1.432739999999999903e+00 7.138580000000000148e+00 7.043420000000000236e+00 1.427110000000000101e+00 7.129240000000000244e+00 1.109267000000000003e+01 2.865419999999999856e+00 5.723010000000000375e+00 9.065879999999999939e+00 2.847850000000000215e+00 5.710390000000000299e+00 1.310271999999999970e+01 4.284019999999999939e+00 7.142559999999999576e+00 7.053960000000000008e+00 4.291070000000000384e+00 7.129550000000000054e+00 1.109324999999999939e+01 5.706550000000000011e+00 5.699370000000000047e+00 9.088739999999999597e+00 5.711319999999999730e+00 5.708459999999999646e+00 1.310594000000000037e+01 7.141600000000000392e+00 7.121030000000000193e+00 7.049080000000000013e+00 7.130770000000000053e+00 7.127510000000000012e+00 1.108563000000000009e+01 2.884129999999999860e+00 2.730059999999999931e+00 4.999439999999999884e+00
9.709999999999999881e-03 8.550910000000000011e+00 9.080009999999999692e+00 8.554719999999999658e+00 1.527000000000000059e-02 1.311434000000000033e+01 1.431980000000000031e+00 1.417180000000000106e+00 7.049269999999999925e+00 1.406709999999999905e+00 1.430309999999999970e+00 1.110845999999999911e+01 2.857509999999999994e+00 8.560430000000000206e+00 9.077890000000000015e+00 2.828530000000000211e+00 8.551460000000000505e+00 1.309667999999999921e+01 4.281410000000000160e+00 1.414150000000000018e+00 7.055349999999999788e+00 4.294340000000000046e+00 1.420309999999999961e+00 1.109782000000000046e+01 5.708709999999999951e+00 7.820000000000000562e-03 9.088729999999999976e+00 5.712900000000000311e+00 8.549580000000000624e+00 1.312987000000000037e+01 7.136300000000000310e+00 1.458129999999999926e+00 7.046160000000000423e+00 7.147630000000000372e+00 1.445079999999999920e+00 1.109994000000000014e+01 9.700000000000000505e-04 2.898239999999999927e+00 9.100400000000000489e+00 8.564809999999999590e+00 2.851560000000000095e+00 1.311153999999999975e+01 1.437729999999999952e+00 4.267470000000000319e+00 7.070310000000000095e+00 1.434509999999999952e+00 4.286669999999999980e+00 1.110378000000000043e+01 2.839220000000000077e+00 2.858099999999999863e+00 9.081179999999999808e+00 2.858260000000000023e+00 2.862470000000000070e+00 1.309338999999999942e+01 4.300959999999999894e+00 4.277280000000000193e+00 7.043249999999999567e+00 4.285580000000000389e+00 4.301020000000000287e+00 1.110525999999999947e+01 5.713379999999999903e+00 2.872119999999999784e+00 9.078239999999999199e+00 5.721289999999999765e+00 2.868360000000000021e+00 1.311034000000000077e+01 7.155179999999999652e+00 4.291830000000000034e+00 7.058830000000000382e+00 7.132460000000000022e+00 4.301149999999999807e+00 1.110396000000000072e+01 3.650000000000000033e-03 5.719369999999999621e+00 9.066739999999999355e+00 8.567719999999999558e+00 5.703210000000000335e+00 1.310357999999999912e+01 1.434299999999999908e+00 7.138169999999999682e+00 7.039930000000000021e+00 1.426739999999999897e+00 7.125729999999999897e+00 1.109256000000000064e+01 2.868549999999999933e+00 5.726650000000000240e+00 9.062400000000000233e+00 2.845159999999999911e+00 5.709869999999999557e+00 1.309872999999999976e+01 4.284080000000000332e+00 7.143460000000000143e+00 7.053980000000000139e+00 4.293470000000000120e+00 7.126129999999999853e+00 1.109332999999999991e+01 5.704749999999999766e+00 5.695170000000000066e+00 9.093049999999999855e+00 5.711020000000000429e+00 5.707220000000000404e+00 1.310307000000000066e+01 7.142159999999999620e+00 7.114779999999999660e+00 7.047460000000000058e+00 7.127760000000000318e+00 7.123440000000000438e+00 1.108311999999999919e+01 2.883630000000000138e+00 2.730140000000000011e+00 5.000079999999999636e+00
1.216000000000000067e-02 8.546760000000000801e+00 9.080909999999999371e+00 8.551520000000000010e+00 1.913000000000000117e-02 1.311416000000000004e+01 1.432889999999999997e+00 1.414400000000000102e+00 7.047850000000000392e+00 1.401340000000000030e+00 1.430749999999999966e+00 1.111237999999999992e+01 2.857899999999999885e+00 8.558569999999999567e+00 9.078020000000000422e+00 2.821699999999999875e+00 8.547380000000000422e+00 1.309197999999999951e+01 4.280870000000000175e+00 1.410619999999999985e+00 7.055480000000000196e+00 4.296990000000000087e+00 1.418290000000000051e+00 1.109910999999999959e+01 5.707900000000000418e+00 9.780000000000000498e-03 9.091760000000000730e+00 5.713029999999999831e+00 8.545099999999999696e+00 1.313357000000000063e+01 7.135430000000000383e+00 1.465600000000000014e+00 7.044489999999999696e+00 7.149530000000000385e+00 1.449230000000000018e+00 1.110187999999999953e+01 1.219999999999999947e-03 2.908729999999999816e+00 9.106090000000000018e+00 8.564049999999999940e+00 2.850480000000000125e+00 1.311062000000000083e+01 1.440190000000000081e+00 4.263349999999999973e+00 7.074130000000000251e+00 1.435969999999999969e+00 4.287460000000000271e+00 1.110651999999999973e+01 2.835100000000000176e+00 2.858639999999999848e+00 9.082179999999999254e+00 2.858839999999999826e+00 2.864050000000000207e+00 1.308774000000000015e+01 4.305209999999999759e+00 4.275599999999999845e+00 7.040309999999999846e+00 4.286109999999999864e+00 4.305360000000000298e+00 1.110837000000000074e+01 5.713729999999999976e+00 2.876139999999999919e+00 9.078450000000000131e+00 5.723580000000000112e+00 2.871469999999999967e+00 1.310908000000000051e+01 7.158990000000000187e+00 4.293790000000000440e+00 7.060299999999999798e+00 7.130589999999999762e+00 4.305469999999999686e+00 1.110689999999999955e+01 4.619999999999999975e-03 5.721169999999999867e+00 9.064360000000000639e+00 8.567759999999999820e+00 5.700929999999999609e+00 1.310070999999999941e+01 1.435859999999999914e+00 7.137780000000000236e+00 7.036679999999999602e+00 1.426320000000000032e+00 7.122259999999999813e+00 1.109265000000000079e+01 2.871659999999999879e+00 5.730279999999999596e+00 9.058669999999999334e+00 2.842480000000000118e+00 5.709369999999999834e+00 1.309459999999999980e+01 4.284169999999999590e+00 7.144379999999999953e+00 7.054229999999999556e+00 4.295880000000000365e+00 7.122729999999999784e+00 1.109364000000000061e+01 5.702939999999999898e+00 5.690990000000000215e+00 9.097170000000000201e+00 5.710679999999999978e+00 5.705930000000000391e+00 1.310005999999999915e+01 7.142699999999999605e+00 7.108579999999999899e+00 7.046059999999999768e+00 7.124760000000000204e+00 7.119399999999999729e+00 1.108080999999999960e+01 2.883109999999999840e+00 2.730280000000000040e+00 5.001120000000000232e+00
1.461999999999999932e-02 8.542659999999999698e+00 9.081640000000000157e+00 8.548339999999999606e+00 2.300999999999999920e-02 1.311384999999999934e+01 1.433750000000000080e+00 1.411599999999999966e+00 7.046470000000000233e+00 1.395979999999999999e+00 1.431119999999999948e+00 1.111644000000000077e+01 2.858290000000000219e+00 8.556729999999999947e+00 9.077890000000000015e+00 2.814869999999999983e+00 8.543329999999999202e+00 1.308710999999999913e+01 4.280380000000000074e+00 1.407070000000000043e+00 7.055649999999999977e+00 4.299640000000000128e+00 1.416250000000000009e+00 1.110055999999999976e+01 5.707089999999999996e+00 1.173000000000000084e-02 9.094599999999999795e+00 5.713129999999999598e+00 8.540670000000000428e+00 1.313715000000000011e+01 7.134570000000000078e+00 1.473039999999999905e+00 7.043059999999999654e+00 7.151399999999999757e+00 1.453319999999999945e+00 1.110401000000000060e+01 1.459999999999999926e-03 2.919169999999999821e+00 9.111489999999999867e+00 8.563299999999999912e+00 2.849419999999999842e+00 1.310956999999999972e+01 1.442649999999999988e+00 4.259229999999999627e+00 7.078000000000000291e+00 1.437359999999999971e+00 4.288280000000000314e+00 1.110940000000000083e+01 2.831020000000000092e+00 2.859170000000000211e+00 9.082950000000000301e+00 2.859430000000000138e+00 2.865590000000000082e+00 1.308186000000000071e+01 4.309450000000000003e+00 4.273920000000000385e+00 7.037379999999999747e+00 4.286699999999999733e+00 4.309720000000000439e+00 1.111162999999999990e+01 5.714080000000000048e+00 2.880149999999999988e+00 9.078400000000000247e+00 5.725859999999999950e+00 2.874579999999999913e+00 1.310767000000000060e+01 7.162770000000000081e+00 4.295740000000000336e+00 7.062009999999999899e+00 7.128709999999999880e+00 4.309789999999999566e+00 1.111004999999999932e+01 5.619999999999999996e-03 5.722949999999999982e+00 9.061820000000000874e+00 8.567849999999999966e+00 5.698620000000000019e+00 1.309770999999999930e+01 1.437410000000000077e+00 7.137410000000000032e+00 7.033660000000000245e+00 1.425869999999999971e+00 7.118839999999999613e+00 1.109295000000000009e+01 2.874740000000000073e+00 5.733880000000000088e+00 9.054690000000000794e+00 2.839809999999999945e+00 5.708879999999999733e+00 1.309031000000000056e+01 4.284279999999999866e+00 7.145299999999999763e+00 7.054730000000000167e+00 4.298280000000000101e+00 7.119340000000000224e+00 1.109415000000000084e+01 5.701150000000000162e+00 5.686819999999999986e+00 9.101100000000000634e+00 5.710289999999999644e+00 5.704609999999999737e+00 1.309693000000000040e+01 7.143229999999999968e+00 7.102409999999999890e+00 7.044880000000000031e+00 7.121800000000000352e+00 7.115420000000000300e+00 1.107868999999999993e+01 2.882600000000000051e+00 2.730480000000000018e+00 5.002559999999999896e+00
1.708000000000000143e-02 8.538619999999999877e+00 9.082219999999999516e+00 8.545199999999999463e+00 2.690000000000000030e-02 1.311340000000000039e+01 1.434579999999999966e+00 1.408760000000000012e+00 7.045119999999999827e+00 1.390630000000000033e+00 1.431429999999999980e+00 1.112063000000000024e+01 2.858690000000000175e+00 8.554899999999999949e+00 9.077510000000000190e+00 2.808059999999999778e+00 8.539300000000000779e+00 1.308206999999999987e+01 4.279930000000000234e+00 1.403510000000000035e+00 7.055880000000000152e+00 4.302290000000000170e+00 1.414190000000000058e+00 1.110218000000000060e+01 5.706299999999999706e+00 1.367999999999999945e-02 9.097250000000000725e+00 5.713199999999999612e+00 8.536279999999999646e+00 1.314061000000000057e+01 7.133729999999999905e+00 1.480469999999999953e+00 7.041900000000000048e+00 7.153240000000000265e+00 1.457349999999999923e+00 1.110635000000000083e+01 1.699999999999999905e-03 2.929539999999999811e+00 9.116590000000000416e+00 8.562540000000000262e+00 2.848370000000000068e+00 1.310837000000000074e+01 1.445130000000000026e+00 4.255119999999999791e+00 7.081889999999999574e+00 1.438669999999999893e+00 4.289150000000000240e+00 1.111239999999999917e+01 2.826989999999999892e+00 2.859690000000000065e+00 9.083489999999999398e+00 2.860009999999999941e+00 2.867080000000000073e+00 1.307576000000000072e+01 4.313679999999999737e+00 4.272230000000000416e+00 7.034489999999999910e+00 4.287340000000000373e+00 4.314079999999999693e+00 1.111501999999999946e+01 5.714430000000000121e+00 2.884129999999999860e+00 9.078089999999999549e+00 5.728119999999999656e+00 2.877689999999999859e+00 1.310609999999999964e+01 7.166540000000000354e+00 4.297679999999999723e+00 7.063959999999999795e+00 7.126829999999999998e+00 4.314079999999999693e+00 1.111339000000000077e+01 6.649999999999999661e-03 5.724709999999999965e+00 9.059129999999999683e+00 6.999999999999999387e-05 5.696279999999999788e+00 1.309459999999999980e+01 1.438960000000000017e+00 7.137059999999999960e+00 7.030890000000000306e+00 1.425370000000000026e+00 7.115470000000000184e+00 1.109343999999999930e+01 2.877790000000000070e+00 5.737459999999999560e+00 9.050459999999999283e+00 2.837149999999999839e+00 5.708429999999999893e+00 1.308586999999999989e+01 4.284419999999999895e+00 7.146239999999999704e+00 7.055460000000000065e+00 4.300670000000000215e+00 7.115980000000000416e+00 1.109488999999999947e+01 5.699360000000000426e+00 5.682669999999999888e+00 9.104820000000000135e+00 5.709859999999999935e+00 5.703260000000000218e+00 1.309366999999999948e+01 7.143729999999999691e+00 7.096280000000000143e+00 7.043940000000000090e+00 7.118859999999999744e+00 7.111489999999999867e+00 1.107676999999999978e+01 2.882080000000000197e+00 2.730719999999999814e+00 5.004389999999999894e+00
1.953999999999999834e-02 8.534649999999999181e+00 9.082629999999999981e+00 8.542089999999999961e+00 3.079000000000000140e-02 1.311283000000000065e+01 1.435359999999999969e+00 1.405899999999999928e+00 7.043820000000000192e+00 1.385299999999999976e+00 1.431669999999999998e+00 1.112494000000000050e+01 2.859090000000000131e+00 8.553089999999999193e+00 9.076879999999999171e+00 2.801260000000000083e+00 8.535289999999999822e+00 1.307685000000000031e+01 4.279519999999999769e+00 1.399929999999999897e+00 7.056160000000000210e+00 4.304929999999999701e+00 1.412109999999999976e+00 1.110394999999999932e+01 5.705519999999999925e+00 1.562000000000000020e-02 9.099690000000000722e+00 5.713230000000000253e+00 8.531929999999999126e+00 1.314394000000000062e+01 7.132900000000000240e+00 1.487870000000000026e+00 7.041000000000000369e+00 7.155039999999999623e+00 1.461310000000000109e+00 1.110886999999999958e+01 1.930000000000000075e-03 2.939830000000000165e+00 9.121370000000000644e+00 8.561780000000000612e+00 2.847329999999999917e+00 1.310704999999999920e+01 1.447629999999999972e+00 4.251009999999999955e+00 7.085829999999999629e+00 1.439899999999999958e+00 4.290040000000000298e+00 1.111552999999999969e+01 2.823020000000000085e+00 2.860199999999999854e+00 9.083809999999999718e+00 2.860609999999999875e+00 2.868520000000000181e+00 1.306944000000000017e+01 4.317910000000000359e+00 4.270529999999999937e+00 7.031620000000000203e+00 4.288030000000000008e+00 4.318439999999999834e+00 1.111853999999999942e+01 5.714769999999999683e+00 2.888090000000000046e+00 9.077519999999999811e+00 5.730369999999999742e+00 2.880799999999999805e+00 1.310438000000000081e+01 7.170300000000000118e+00 4.299590000000000245e+00 7.066159999999999997e+00 7.124929999999999986e+00 4.318340000000000067e+00 1.111692999999999998e+01 7.709999999999999840e-03 5.726440000000000197e+00 9.056300000000000239e+00 2.200000000000000078e-04 5.693920000000000314e+00 1.309136999999999951e+01 1.440509999999999957e+00 7.136739999999999640e+00 7.028369999999999784e+00 1.424830000000000041e+00 7.112160000000000259e+00 1.109413999999999945e+01 2.880799999999999805e+00 5.741019999999999790e+00 9.045999999999999375e+00 2.834519999999999929e+00 5.708020000000000316e+00 1.308128999999999920e+01 4.284589999999999677e+00 7.147190000000000154e+00 7.056440000000000268e+00 4.303029999999999688e+00 7.112630000000000230e+00 1.109584000000000081e+01 5.697589999999999932e+00 5.678550000000000431e+00 9.108340000000000103e+00 5.709369999999999834e+00 5.701870000000000438e+00 1.309029999999999916e+01 7.144219999999999793e+00 7.090209999999999901e+00 7.043239999999999945e+00 7.115969999999999906e+00 7.107619999999999827e+00 1.107504999999999917e+01 2.881549999999999834e+00 2.731020000000000003e+00 5.006610000000000227e+00
2.200999999999999832e-02 8.530739999999999768e+00 9.082869999999999777e+00 8.538999999999999702e+00 3.468000000000000249e-02 1.311214000000000013e+01 1.436090000000000089e+00 1.403000000000000025e+00 7.042559999999999931e+00 1.379999999999999893e+00 1.431850000000000067e+00 1.112936999999999976e+01 2.859480000000000022e+00 8.551310000000000855e+00 9.075989999999999114e+00 2.794480000000000075e+00 8.531309999999999505e+00 1.307145000000000046e+01 4.279160000000000075e+00 1.396349999999999980e+00 7.056499999999999773e+00 4.307549999999999990e+00 1.410020000000000051e+00 1.110588000000000086e+01 5.704769999999999897e+00 1.754999999999999963e-02 9.101929999999999410e+00 5.713230000000000253e+00 8.527620000000000644e+00 1.314714999999999989e+01 7.132100000000000328e+00 1.495249999999999968e+00 7.040370000000000239e+00 7.156799999999999606e+00 1.465209999999999901e+00 1.111158000000000001e+01 2.150000000000000001e-03 2.950019999999999865e+00 9.125849999999999795e+00 8.561009999999999565e+00 2.846299999999999830e+00 1.310560000000000080e+01 1.450139999999999985e+00 4.246929999999999872e+00 7.089800000000000324e+00 1.441049999999999942e+00 4.290969999999999729e+00 1.111877999999999922e+01 2.819109999999999783e+00 2.860679999999999890e+00 9.083909999999999485e+00 2.861200000000000188e+00 2.869880000000000209e+00 1.306288999999999945e+01 4.322140000000000093e+00 4.268830000000000346e+00 7.028780000000000250e+00 4.288770000000000415e+00 4.322790000000000354e+00 1.112218000000000018e+01 5.715119999999999756e+00 2.892009999999999970e+00 9.076689999999999259e+00 5.732590000000000074e+00 2.883910000000000196e+00 1.310249999999999915e+01 7.174030000000000129e+00 4.301490000000000258e+00 7.068609999999999616e+00 7.123020000000000351e+00 4.322569999999999801e+00 1.112067000000000050e+01 8.819999999999999715e-03 5.728139999999999787e+00 9.053309999999999746e+00 4.099999999999999912e-04 5.691539999999999822e+00 1.308802999999999983e+01 1.442069999999999963e+00 7.136440000000000339e+00 7.026089999999999947e+00 1.424239999999999950e+00 7.108909999999999840e+00 1.109503999999999913e+01 2.883770000000000167e+00 5.744539999999999758e+00 9.041309999999999292e+00 2.831900000000000084e+00 5.707650000000000112e+00 1.307657000000000025e+01 4.284799999999999720e+00 7.148150000000000226e+00 7.057660000000000267e+00 4.305369999999999919e+00 7.109320000000000306e+00 1.109699999999999953e+01 5.695829999999999949e+00 5.674470000000000347e+00 9.111649999999999139e+00 5.708829999999999849e+00 5.700450000000000017e+00 1.308680000000000021e+01 7.144680000000000142e+00 7.084190000000000431e+00 7.042769999999999975e+00 7.113120000000000331e+00 7.103839999999999932e+00 1.107352999999999987e+01 2.881029999999999980e+00 2.731370000000000076e+00 5.009229999999999627e+00