-1.200387065299999989e+02
-1.200331720399999966e+02
-1.200287465699999956e+02
-1.200254806100000025e+02
-1.200234039799999977e+02
-1.200224540499999932e+02
-1.200227773099999951e+02
-1.200245961199999982e+02
-1.200279691199999945e+02
-1.200328618500000033e+02
-1.201154813400000023e+02
-1.201445855999999992e+02
-1.201347515700000059e+02
-1.201178237299999978e+02
-1.203467720799999938e+02
-1.205562615300000004e+02
-1.208929693299999997e+02
-1.210921579500000007e+02
-1.215243458799999985e+02
-1.217218956300000059e+02
-1.210751017700000034e+02
-1.224949661699999979e+02
-1.225364060499999965e+02
-1.225492425200000071e+02
-1.218631812600000046e+02
-1.218254299900000035e+02
-1.224031521600000048e+02
-1.225124360300000035e+02
-1.227693740400000024e+02
