3.665399999999999908e-02 2.153400000000000106e-02 -4.561779999999999724e-01 1.148259999999999975e-01 9.793300000000000616e-02 -3.636730000000000240e-01 -7.153299999999999936e-02 -7.615700000000000247e-02 8.230400000000000216e-02 -1.262979999999999936e-01 -1.351320000000000021e-01 4.602559999999999985e-01 -4.274000000000000021e-03 -1.768099999999999880e-02 -7.254420000000000313e-01 -3.884999999999999998e-03 1.825799999999999992e-02 -4.541450000000000209e-01 1.036649999999999933e-01 -1.045780000000000043e-01 9.908100000000000240e-02 1.263539999999999941e-01 -1.313999999999999890e-01 4.612840000000000273e-01 -3.338700000000000001e-02 2.330799999999999886e-02 -4.627279999999999727e-01 -1.100349999999999939e-01 9.963800000000000434e-02 -3.616119999999999890e-01 -3.521999999999999957e-03 -5.273400000000000309e-02 6.374870000000000259e-01 -4.964999999999999795e-03 -8.698300000000000476e-02 6.099809999999999954e-01 2.006000000000000144e-02 1.806999999999999926e-02 -7.393140000000000267e-01 3.645700000000000329e-02 1.658199999999999952e-02 -4.433670000000000111e-01 1.949999999999999997e-02 -2.776999999999999955e-02 6.853599999999999970e-02 -1.433889999999999887e-01 1.362659999999999982e-01 4.588809999999999834e-01 -7.439000000000000300e-03 3.213200000000000084e-02 -6.978090000000000126e-01 -6.217000000000000304e-03 2.630700000000000052e-02 -6.156209999999999738e-01 1.237999999999999951e-03 -1.062199999999999950e-02 6.493000000000000160e-02 1.428030000000000133e-01 1.318900000000000072e-01 4.589170000000000194e-01 -6.596000000000000300e-03 1.825099999999999986e-02 -7.345140000000000002e-01 -3.009999999999999828e-02 1.661100000000000076e-02 -4.477920000000000234e-01 -3.847999999999999858e-03 2.175200000000000050e-02 6.295699999999999630e-01 -4.747000000000000351e-03 9.294099999999999584e-02 5.988360000000000349e-01 2.876700000000000090e-02 -3.559299999999999964e-02 -4.319230000000000014e-01 1.071710000000000024e-01 -1.175960000000000061e-01 -3.803150000000000142e-01 -3.406499999999999806e-02 1.620600000000000165e-02 6.324509999999999854e-01 -9.197900000000000520e-02 2.047799999999999968e-02 6.016550000000000509e-01 -4.088999999999999753e-03 -3.996100000000000346e-02 -7.458320000000000505e-01 -3.850999999999999823e-03 -4.512399999999999745e-02 -4.361760000000000081e-01 4.134199999999999681e-02 1.589600000000000041e-02 6.343010000000000037e-01 9.039999999999999425e-02 2.068499999999999853e-02 6.042429999999999746e-01 -2.555899999999999839e-02 -3.742800000000000293e-02 -4.371209999999999818e-01 -1.026890000000000025e-01 -1.196009999999999990e-01 -3.753580000000000250e-01 -3.295999999999999885e-03 1.409900000000000042e-02 6.038930000000000131e-01 -1.490999999999999921e-03 6.871000000000000371e-03 5.123959999999999626e-01 -4.188499999999999862e-02 1.707720000000000071e-01 1.118044000000000038e+00
3.201699999999999685e-02 5.056200000000000278e-02 -4.560259999999999869e-01 1.109020000000000006e-01 8.250200000000000589e-02 -3.647869999999999724e-01 -8.053200000000000636e-02 -7.228800000000000503e-02 8.601899999999999824e-02 -1.002399999999999958e-01 -1.426560000000000050e-01 4.426629999999999732e-01 -3.082999999999999803e-03 -4.782999999999999925e-03 -7.260490000000000554e-01 3.847999999999999858e-03 2.896200000000000163e-02 -4.584849999999999759e-01 1.071929999999999966e-01 -9.028200000000000114e-02 1.066269999999999996e-01 1.042330000000000062e-01 -1.195490000000000025e-01 4.550549999999999873e-01 -2.352100000000000024e-02 1.842900000000000094e-02 -4.783450000000000202e-01 -1.098039999999999988e-01 1.064640000000000031e-01 -3.626940000000000164e-01 4.192999999999999679e-03 -6.348900000000000376e-02 6.498760000000000092e-01 -1.727400000000000116e-02 -1.033319999999999933e-01 5.975629999999999553e-01 1.555600000000000038e-02 -2.179400000000000087e-02 -7.583860000000000046e-01 3.186599999999999849e-02 1.932499999999999843e-02 -4.316070000000000184e-01 2.108399999999999858e-02 -1.739200000000000121e-02 7.148200000000000387e-02 -1.564659999999999940e-01 1.311589999999999978e-01 4.389040000000000163e-01 1.755500000000000116e-02 2.088599999999999832e-02 -6.887379999999999614e-01 -2.997999999999999797e-03 -2.713000000000000134e-03 -6.153619999999999646e-01 -5.359000000000000048e-03 -1.106299999999999992e-02 6.534600000000000131e-02 1.432029999999999970e-01 1.155660000000000021e-01 4.403540000000000232e-01 -7.438000000000000167e-03 4.205999999999999669e-03 -7.337900000000000533e-01 -3.442699999999999927e-02 1.093200000000000074e-02 -4.440819999999999768e-01 -1.419899999999999982e-02 1.074300000000000081e-02 6.380350000000000188e-01 -8.921000000000000110e-03 7.194100000000000494e-02 5.877510000000000234e-01 3.837700000000000139e-02 -4.437599999999999878e-02 -4.273230000000000084e-01 1.055269999999999958e-01 -1.094249999999999945e-01 -3.716200000000000059e-01 -3.103200000000000056e-02 2.449799999999999894e-02 6.411280000000000312e-01 -9.819899999999999463e-02 3.917000000000000343e-02 5.933920000000000305e-01 -2.114500000000000060e-02 -4.741100000000000175e-02 -7.322389999999999732e-01 3.996999999999999685e-03 -2.370900000000000091e-02 -4.297429999999999861e-01 4.812700000000000311e-02 1.832299999999999901e-02 6.390109999999999957e-01 7.207900000000000418e-02 2.433499999999999899e-02 6.007470000000000310e-01 -1.769700000000000092e-02 -2.194099999999999870e-02 -4.551990000000000203e-01 -1.081749999999999934e-01 -1.143040000000000028e-01 -3.692960000000000131e-01 -1.285299999999999984e-02 4.027800000000000130e-02 6.094859999999999722e-01 1.145499999999999990e-02 3.173700000000000132e-02 5.169300000000000006e-01 -3.712900000000000228e-02 1.666169999999999873e-01 1.118814999999999893e+00
2.644099999999999923e-02 7.979100000000000081e-02 -4.560279999999999889e-01 1.094450000000000006e-01 6.892800000000000316e-02 -3.664240000000000275e-01 -8.887899999999999967e-02 -7.155799999999999661e-02 9.009300000000000641e-02 -6.918000000000000538e-02 -1.521649999999999947e-01 4.275610000000000244e-01 -2.210999999999999858e-03 3.497999999999999807e-03 -7.248740000000000183e-01 1.426900000000000043e-02 3.700599999999999723e-02 -4.653180000000000094e-01 1.091310000000000058e-01 -7.879300000000000193e-02 1.139369999999999966e-01 8.025400000000000589e-02 -1.092019999999999935e-01 4.517849999999999921e-01 -1.088000000000000078e-02 9.797000000000000153e-03 -4.924129999999999896e-01 -1.085969999999999991e-01 1.118360000000000049e-01 -3.592020000000000213e-01 1.341499999999999984e-02 -6.517699999999999882e-02 6.643489999999999673e-01 -3.237999999999999906e-02 -1.216539999999999982e-01 5.882070000000000354e-01 1.081400000000000070e-02 -6.321400000000000630e-02 -7.772149999999999892e-01 2.380200000000000024e-02 1.989499999999999949e-02 -4.187219999999999831e-01 2.457900000000000015e-02 -1.076200000000000073e-02 7.802800000000000014e-02 -1.699090000000000045e-01 1.279550000000000132e-01 4.258359999999999923e-01 4.273899999999999921e-02 1.110900000000000082e-02 -6.783160000000000300e-01 -1.350000000000000017e-04 -2.799499999999999905e-02 -6.186770000000000325e-01 -7.339000000000000037e-03 -1.381600000000000016e-02 6.718499999999999472e-02 1.434890000000000054e-01 9.435599999999999543e-02 4.274600000000000066e-01 -4.904999999999999638e-03 -9.400999999999999635e-03 -7.320349999999999913e-01 -3.938599999999999740e-02 7.172999999999999689e-03 -4.416729999999999823e-01 -2.013300000000000159e-02 1.105999999999999995e-03 6.467370000000000063e-01 -1.037599999999999981e-02 4.472500000000000087e-02 5.833890000000000464e-01 4.893000000000000127e-02 -5.198300000000000143e-02 -4.232730000000000103e-01 1.054080000000000017e-01 -1.056490000000000068e-01 -3.660109999999999753e-01 -2.506299999999999847e-02 3.241800000000000237e-02 6.481050000000000422e-01 -1.022910000000000069e-01 5.996400000000000341e-02 5.884509999999999463e-01 -3.453099999999999919e-02 -5.081399999999999806e-02 -7.191589999999999927e-01 8.462000000000000771e-03 -3.413999999999999934e-03 -4.253419999999999979e-01 5.400599999999999845e-02 2.023300000000000098e-02 6.445859999999999923e-01 4.800900000000000306e-02 3.311499999999999860e-02 6.019120000000000026e-01 -6.146000000000000421e-03 -2.073000000000000190e-03 -4.774740000000000095e-01 -1.140329999999999955e-01 -1.112419999999999937e-01 -3.667920000000000069e-01 -2.111599999999999935e-02 5.572499999999999676e-02 6.180639999999999468e-01 3.035399999999999904e-02 6.185800000000000326e-02 5.277680000000000149e-01 -3.138200000000000017e-02 1.628779999999999950e-01 1.118505000000000082e+00
2.215699999999999961e-02 1.072310000000000069e-01 -4.576990000000000225e-01 1.018809999999999993e-01 5.696099999999999774e-02 -3.628560000000000119e-01 -9.638499999999999845e-02 -7.095100000000000018e-02 9.566600000000000104e-02 -4.228900000000000020e-02 -1.583630000000000038e-01 4.159950000000000037e-01 2.799999999999999755e-04 1.331700000000000071e-02 -7.219830000000000414e-01 2.377299999999999899e-02 4.488199999999999829e-02 -4.681420000000000026e-01 1.130519999999999997e-01 -7.229499999999999815e-02 1.227629999999999971e-01 5.579400000000000331e-02 -9.583400000000000252e-02 4.497829999999999884e-01 1.335000000000000032e-03 2.393000000000000162e-03 -5.074659999999999727e-01 -1.078579999999999955e-01 1.132679999999999937e-01 -3.554849999999999954e-01 2.530699999999999963e-02 -7.128099999999999714e-02 6.777250000000000218e-01 -4.745699999999999918e-02 -1.379190000000000138e-01 5.772340000000000249e-01 4.479000000000000342e-03 -9.819799999999999363e-02 -7.986699999999999910e-01 1.784699999999999828e-02 2.331499999999999892e-02 -4.058200000000000141e-01 2.655499999999999874e-02 -2.082000000000000083e-03 7.967100000000000570e-02 -1.825309999999999988e-01 1.210630000000000039e-01 4.077439999999999953e-01 6.943299999999999472e-02 -2.863000000000000093e-03 -6.702120000000000299e-01 8.279999999999999600e-04 -5.931000000000000161e-02 -6.181489999999999485e-01 -7.825999999999999623e-03 -1.410499999999999948e-02 6.896199999999999553e-02 1.435670000000000002e-01 7.402000000000000246e-02 4.126790000000000180e-01 -6.375999999999999723e-03 -2.490300000000000152e-02 -7.299269999999999925e-01 -4.416899999999999993e-02 1.353999999999999952e-03 -4.399230000000000085e-01 -2.594499999999999931e-02 -9.823999999999999400e-03 6.543099999999999472e-01 -1.365099999999999994e-02 1.872599999999999959e-02 5.777780000000000138e-01 5.916899999999999937e-02 -5.863600000000000062e-02 -4.192210000000000103e-01 1.044009999999999938e-01 -9.844899999999999485e-02 -3.583640000000000159e-01 -2.054399999999999976e-02 4.077299999999999675e-02 6.563130000000000353e-01 -1.053400000000000031e-01 8.194500000000000395e-02 5.844920000000000115e-01 -4.880799999999999722e-02 -5.164400000000000240e-02 -7.099940000000000140e-01 1.846199999999999924e-02 1.842099999999999987e-02 -4.205829999999999846e-01 5.987599999999999867e-02 2.246799999999999839e-02 6.511310000000000153e-01 2.452299999999999966e-02 3.941700000000000065e-02 6.022089999999999943e-01 2.844999999999999873e-03 1.710199999999999915e-02 -4.997570000000000068e-01 -1.206040000000000029e-01 -1.099310000000000009e-01 -3.631900000000000128e-01 -2.912800000000000111e-02 7.648099999999999343e-02 6.237500000000000266e-01 4.542500000000000010e-02 8.666899999999999604e-02 5.353609999999999758e-01 -2.549799999999999983e-02 1.591760000000000119e-01 1.116992999999999903e+00
1.700399999999999828e-02 1.339440000000000075e-01 -4.601169999999999982e-01 9.816800000000000526e-02 4.195800000000000224e-02 -3.637340000000000018e-01 -1.021880000000000011e-01 -7.730499999999999872e-02 9.885199999999999543e-02 -1.400700000000000035e-02 -1.677379999999999982e-01 3.993769999999999820e-01 1.949999999999999910e-03 2.398199999999999985e-02 -7.195850000000000302e-01 2.709100000000000050e-02 5.242000000000000132e-02 -4.729010000000000158e-01 1.159820000000000018e-01 -6.063199999999999840e-02 1.291090000000000015e-01 3.272200000000000109e-02 -8.253900000000000126e-02 4.483269999999999755e-01 1.318399999999999954e-02 -6.780999999999999701e-03 -5.244750000000000245e-01 -1.052880000000000066e-01 1.201379999999999948e-01 -3.557520000000000127e-01 3.354800000000000143e-02 -7.454800000000000315e-02 6.936330000000000551e-01 -5.907199999999999951e-02 -1.520239999999999925e-01 5.707360000000000211e-01 -3.540000000000000178e-03 -1.311779999999999891e-01 -8.196879999999999722e-01 1.153900000000000065e-02 2.632299999999999918e-02 -3.934900000000000064e-01 2.836400000000000032e-02 8.253999999999999185e-03 8.346299999999999553e-02 -1.956170000000000131e-01 1.141029999999999961e-01 3.889799999999999924e-01 9.610899999999999999e-02 -1.497300000000000020e-02 -6.624020000000000463e-01 3.242000000000000090e-03 -8.833299999999999486e-02 -6.168590000000000462e-01 -1.208000000000000046e-02 -1.323000000000000044e-02 7.336299999999999766e-02 1.432730000000000115e-01 5.783699999999999952e-02 4.017600000000000060e-01 -5.623000000000000394e-03 -4.135699999999999793e-02 -7.301689999999999570e-01 -4.716100000000000153e-02 -1.031000000000000015e-03 -4.400120000000000142e-01 -3.416399999999999992e-02 -2.184099999999999930e-02 6.615640000000000409e-01 -1.689399999999999930e-02 -5.657999999999999835e-03 5.734120000000000328e-01 7.101300000000000667e-02 -6.248499999999999888e-02 -4.190240000000000076e-01 1.031669999999999948e-01 -9.107700000000000518e-02 -3.486899999999999999e-01 -1.703199999999999853e-02 5.034600000000000186e-02 6.666269999999999696e-01 -1.100759999999999933e-01 1.048160000000000064e-01 5.790969999999999729e-01 -6.402800000000000158e-02 -5.936099999999999710e-02 -6.998609999999999554e-01 2.764499999999999943e-02 4.151699999999999835e-02 -4.129940000000000278e-01 6.577900000000000413e-02 2.485300000000000009e-02 6.575889999999999791e-01 1.358999999999999965e-03 4.867199999999999999e-02 6.023169999999999913e-01 1.152300000000000026e-02 3.328400000000000108e-02 -5.216290000000000093e-01 -1.263910000000000033e-01 -1.061050000000000049e-01 -3.599649999999999794e-01 -3.903800000000000325e-02 1.002770000000000050e-01 6.318160000000000442e-01 6.162900000000000322e-02 1.149430000000000035e-01 5.425510000000000055e-01 -2.116699999999999832e-02 1.562230000000000008e-01 1.114163000000000014e+00
1.531500000000000049e-02 1.548450000000000104e-01 -4.557950000000000057e-01 9.355099999999999527e-02 2.779300000000000173e-02 -3.612560000000000215e-01 -1.111639999999999989e-01 -7.797800000000000564e-02 1.048400000000000026e-01 1.559600000000000049e-02 -1.725009999999999877e-01 3.811669999999999781e-01 2.409999999999999816e-03 3.678700000000000025e-02 -7.176449999999999774e-01 3.698099999999999998e-02 6.260899999999999799e-02 -4.753720000000000168e-01 1.190829999999999944e-01 -4.941299999999999859e-02 1.362369999999999970e-01 9.721999999999999739e-03 -7.125700000000000089e-02 4.495970000000000244e-01 2.384800000000000114e-02 -1.464799999999999956e-02 -5.393540000000000001e-01 -1.029329999999999967e-01 1.239370000000000055e-01 -3.531400000000000095e-01 4.227700000000000208e-02 -7.817300000000000637e-02 7.101210000000000022e-01 -7.662700000000000067e-02 -1.662460000000000049e-01 5.593770000000000131e-01 -9.584999999999999770e-03 -1.712420000000000053e-01 -8.365409999999999791e-01 4.419000000000000185e-03 2.964299999999999921e-02 -3.825689999999999924e-01 3.237999999999999906e-02 1.843600000000000100e-02 8.801699999999999802e-02 -2.064439999999999886e-01 1.070350000000000051e-01 3.729190000000000005e-01 1.222739999999999938e-01 -2.420900000000000135e-02 -6.501780000000000337e-01 5.163000000000000055e-03 -1.152829999999999966e-01 -6.187930000000000375e-01 -1.853499999999999939e-02 -1.215399999999999987e-02 7.695000000000000451e-02 1.425389999999999990e-01 3.602299999999999947e-02 3.859130000000000060e-01 -3.830000000000000071e-03 -5.806399999999999756e-02 -7.308230000000000004e-01 -4.745699999999999918e-02 -2.840000000000000076e-03 -4.361380000000000257e-01 -4.412699999999999956e-02 -3.538600000000000079e-02 6.698009999999999797e-01 -1.690799999999999942e-02 -3.265699999999999853e-02 5.660920000000000396e-01 8.071599999999999608e-02 -6.604400000000000548e-02 -4.175710000000000255e-01 1.016989999999999977e-01 -8.225000000000000366e-02 -3.403280000000000194e-01 -1.194500000000000076e-02 5.664099999999999691e-02 6.761179999999999968e-01 -1.137050000000000005e-01 1.276380000000000015e-01 5.727569999999999606e-01 -8.075400000000000633e-02 -6.549299999999999566e-02 -6.870500000000000496e-01 3.566400000000000126e-02 6.440700000000000591e-02 -4.103390000000000093e-01 7.177999999999999658e-02 2.748099999999999848e-02 6.648519999999999985e-01 -1.793499999999999955e-02 5.532999999999999724e-02 6.019660000000000011e-01 2.300299999999999914e-02 5.219300000000000328e-02 -5.442529999999999868e-01 -1.302210000000000034e-01 -9.971399999999999708e-02 -3.536270000000000246e-01 -4.668599999999999833e-02 1.172170000000000017e-01 6.404509999999999925e-01 7.953699999999999659e-02 1.418310000000000126e-01 5.484320000000000306e-01 -1.495499999999999954e-02 1.525829999999999964e-01 1.110125999999999946e+00
1.131899999999999920e-02 1.734559999999999991e-01 -4.565179999999999794e-01 8.974000000000000032e-02 1.463700000000000070e-02 -3.589240000000000208e-01 -1.189500000000000002e-01 -7.873800000000000243e-02 1.092039999999999955e-01 4.196300000000000030e-02 -1.790799999999999892e-01 3.628390000000000226e-01 2.651000000000000145e-03 4.851699999999999763e-02 -7.147170000000000467e-01 4.184299999999999825e-02 6.722899999999999709e-02 -4.819720000000000115e-01 1.211170000000000024e-01 -3.788099999999999801e-02 1.464999999999999913e-01 -1.292399999999999972e-02 -5.977500000000000174e-02 4.495799999999999796e-01 3.566400000000000126e-02 -1.799800000000000011e-02 -5.506860000000000088e-01 -9.773199999999999943e-02 1.293120000000000103e-01 -3.508800000000000252e-01 4.700499999999999817e-02 -7.767899999999999805e-02 7.242420000000000524e-01 -9.116799999999999904e-02 -1.781349999999999878e-01 5.459659999999999513e-01 -1.719899999999999901e-02 -2.069519999999999971e-01 -8.541560000000000263e-01 -1.453999999999999997e-03 3.354100000000000137e-02 -3.719979999999999953e-01 3.538700000000000179e-02 2.624399999999999997e-02 9.214400000000000368e-02 -2.153160000000000074e-01 9.811300000000000576e-02 3.570740000000000025e-01 1.451550000000000062e-01 -3.510900000000000132e-02 -6.381440000000000445e-01 7.872999999999999790e-03 -1.406610000000000082e-01 -6.186880000000000157e-01 -2.253000000000000141e-02 -1.376499999999999946e-02 7.931199999999999362e-02 1.430919999999999970e-01 1.372600000000000035e-02 3.700539999999999941e-01 -2.214999999999999955e-03 -7.404800000000000271e-02 -7.283920000000000394e-01 -5.096300000000000135e-02 -6.546999999999999868e-03 -4.356740000000000057e-01 -5.196300000000000224e-02 -4.535100000000000242e-02 6.762500000000000178e-01 -2.161599999999999980e-02 -5.902999999999999914e-02 5.565970000000000084e-01 9.202599999999999669e-02 -6.796099999999999364e-02 -4.154800000000000160e-01 9.987500000000000544e-02 -7.587399999999999700e-02 -3.300580000000000180e-01 -3.952999999999999917e-03 6.486300000000000399e-02 6.840469999999999606e-01 -1.191129999999999967e-01 1.481290000000000107e-01 5.642099999999999893e-01 -9.582899999999999752e-02 -7.224800000000000666e-02 -6.715410000000000545e-01 4.297600000000000031e-02 8.602100000000000024e-02 -4.065259999999999985e-01 7.803599999999999426e-02 3.005599999999999938e-02 6.719450000000000145e-01 -4.006099999999999939e-02 6.259199999999999486e-02 6.035620000000000429e-01 2.926899999999999988e-02 6.969400000000000595e-02 -5.683740000000000459e-01 -1.339849999999999930e-01 -9.534600000000000020e-02 -3.435130000000000128e-01 -5.360700000000000187e-02 1.368199999999999972e-01 6.496600000000000152e-01 9.406200000000000672e-02 1.668399999999999883e-01 5.541570000000000107e-01 -8.562000000000000166e-03 1.489510000000000001e-01 1.104827000000000004e+00
5.428999999999999798e-03 1.935360000000000136e-01 -4.555179999999999785e-01 8.272500000000000686e-02 1.144999999999999967e-03 -3.567910000000000248e-01 -1.280050000000000077e-01 -7.901400000000000090e-02 1.147839999999999971e-01 6.751899999999999569e-02 -1.851379999999999970e-01 3.426509999999999834e-01 2.158000000000000196e-03 6.025799999999999906e-02 -7.106069999999999887e-01 5.094100000000000017e-02 7.306100000000000094e-02 -4.883520000000000083e-01 1.249500000000000055e-01 -2.603799999999999865e-02 1.525040000000000007e-01 -3.634400000000000130e-02 -4.717199999999999865e-02 4.484739999999999838e-01 4.610899999999999721e-02 -2.488900000000000140e-02 -5.627539999999999765e-01 -9.379899999999999349e-02 1.284619999999999929e-01 -3.503780000000000228e-01 5.151599999999999929e-02 -7.290099999999999358e-02 7.393030000000000435e-01 -1.062020000000000047e-01 -1.910380000000000134e-01 5.363839999999999719e-01 -2.474399999999999863e-02 -2.454649999999999888e-01 -8.673530000000000406e-01 -8.278000000000000635e-03 3.898599999999999982e-02 -3.608430000000000248e-01 3.695099999999999774e-02 3.738299999999999956e-02 9.615999999999999548e-02 -2.234919999999999962e-01 9.017300000000000315e-02 3.410349999999999770e-01 1.655780000000000030e-01 -4.574899999999999800e-02 -6.261520000000000419e-01 9.769999999999999171e-03 -1.643600000000000061e-01 -6.192919999999999536e-01 -2.540900000000000103e-02 -1.529299999999999930e-02 8.093000000000000194e-02 1.409690000000000110e-01 -5.978999999999999940e-03 3.542080000000000228e-01 -2.964000000000000055e-03 -8.316199999999999981e-02 -7.276070000000000038e-01 -5.437899999999999678e-02 -9.700999999999999554e-03 -4.348009999999999931e-01 -5.859299999999999925e-02 -5.709000000000000186e-02 6.854449999999999710e-01 -2.376299999999999940e-02 -8.378299999999999637e-02 5.478089999999999904e-01 9.989299999999999569e-02 -7.111800000000000066e-02 -4.131850000000000245e-01 9.774700000000000055e-02 -6.457100000000000339e-02 -3.204690000000000039e-01 8.419999999999999750e-04 7.283000000000000584e-02 6.932310000000000416e-01 -1.256619999999999959e-01 1.681439999999999879e-01 5.580060000000000020e-01 -1.113029999999999992e-01 -7.834599999999999898e-02 -6.590770000000000239e-01 5.099900000000000266e-02 1.085539999999999977e-01 -4.022470000000000212e-01 8.493199999999999361e-02 3.342900000000000038e-02 6.791310000000000402e-01 -6.360000000000000375e-02 7.027999999999999525e-02 5.996629999999999461e-01 3.625099999999999850e-02 8.530100000000000182e-02 -5.877959999999999852e-01 -1.391809999999999992e-01 -9.092899999999999594e-02 -3.336950000000000194e-01 -5.786499999999999977e-02 1.541790000000000105e-01 6.572930000000000161e-01 1.128299999999999997e-01 1.940830000000000055e-01 5.593559999999999643e-01 -2.830000000000000050e-03 1.468859999999999888e-01 1.099253999999999953e+00
-5.899999999999999754e-05 2.089860000000000051e-01 -4.532829999999999915e-01 7.502799999999999747e-02 -1.416399999999999951e-02 -3.535369999999999902e-01 -1.351529999999999954e-01 -7.776900000000000479e-02 1.188939999999999997e-01 9.833200000000000274e-02 -1.873009999999999953e-01 3.208799999999999986e-01 2.126999999999999984e-03 7.318500000000000005e-02 -7.061020000000000074e-01 6.041400000000000242e-02 7.689300000000000301e-02 -4.951110000000000233e-01 1.279780000000000084e-01 -1.779299999999999979e-02 1.615800000000000014e-01 -5.762199999999999961e-02 -3.519900000000000112e-02 4.494040000000000257e-01 5.877899999999999792e-02 -3.289299999999999863e-02 -5.735559999999999548e-01 -8.753199999999999870e-02 1.307429999999999981e-01 -3.499990000000000046e-01 5.967399999999999788e-02 -7.198499999999999344e-02 7.552780000000000049e-01 -1.227899999999999964e-01 -2.007009999999999905e-01 5.219549999999999468e-01 -3.249699999999999811e-02 -2.722359999999999780e-01 -8.768610000000000015e-01 -1.380999999999999936e-02 4.552900000000000003e-02 -3.495869999999999811e-01 3.994999999999999940e-02 4.481799999999999673e-02 9.980799999999999395e-02 -2.341159999999999908e-01 8.027399999999999813e-02 3.236249999999999960e-01 1.872769999999999990e-01 -6.126899999999999707e-02 -6.151849999999999818e-01 9.610000000000000486e-03 -1.920630000000000115e-01 -6.214450000000000252e-01 -3.342300000000000132e-02 -1.652999999999999955e-02 8.498899999999999511e-02 1.417990000000000084e-01 -2.875199999999999978e-02 3.374420000000000197e-01 -7.979999999999999897e-04 -9.864299999999999458e-02 -7.220769999999999689e-01 -5.945000000000000284e-02 -1.042500000000000024e-02 -4.349100000000000188e-01 -6.666900000000000603e-02 -7.083499999999999519e-02 6.925620000000000109e-01 -2.664800000000000155e-02 -1.117159999999999959e-01 5.368319999999999759e-01 1.067140000000000033e-01 -7.089600000000000068e-02 -4.087350000000000150e-01 9.615899999999999448e-02 -5.804200000000000331e-02 -3.133759999999999879e-01 4.117000000000000000e-03 7.872300000000000131e-02 7.012559999999999905e-01 -1.319180000000000075e-01 1.833849999999999925e-01 5.507859999999999978e-01 -1.252669999999999895e-01 -8.462500000000000577e-02 -6.454579999999999762e-01 6.174500000000000127e-02 1.317480000000000040e-01 -3.943260000000000098e-01 9.065199999999999647e-02 4.043200000000000266e-02 6.873879999999999990e-01 -8.518000000000000571e-02 7.796400000000000552e-02 5.958639999999999493e-01 4.404199999999999782e-02 1.052229999999999971e-01 -6.094190000000000440e-01 -1.440960000000000019e-01 -8.693299999999999639e-02 -3.255649999999999933e-01 -5.983700000000000130e-02 1.655300000000000105e-01 6.652219999999999800e-01 1.272929999999999895e-01 2.195660000000000112e-01 5.620209999999999928e-01 4.499000000000000395e-03 1.432249999999999912e-01 1.093045000000000044e+00
-2.295999999999999864e-03 2.250679999999999903e-01 -4.503820000000000046e-01 6.992800000000000404e-02 -2.882699999999999846e-02 -3.478299999999999725e-01 -1.406229999999999980e-01 -7.763799999999999868e-02 1.239149999999999974e-01 1.291799999999999893e-01 -1.912649999999999906e-01 2.971239999999999992e-01 1.688999999999999963e-03 8.556500000000000217e-02 -6.999229999999999619e-01 7.253999999999999337e-02 8.640899999999999970e-02 -5.022889999999999855e-01 1.303100000000000092e-01 -5.682999999999999684e-03 1.703119999999999912e-01 -7.694900000000000351e-02 -2.175399999999999903e-02 4.495950000000000224e-01 6.909099999999999964e-02 -4.146699999999999692e-02 -5.851309999999999567e-01 -8.266999999999999349e-02 1.356819999999999971e-01 -3.484459999999999780e-01 6.831900000000000472e-02 -7.420100000000000307e-02 7.674210000000000198e-01 -1.395720000000000016e-01 -2.092499999999999916e-01 5.074990000000000334e-01 -3.860800000000000343e-02 -3.095010000000000261e-01 -8.837180000000000035e-01 -2.056399999999999895e-02 5.253200000000000230e-02 -3.375290000000000235e-01 4.495500000000000190e-02 5.623500000000000026e-02 1.022470000000000045e-01 -2.450460000000000138e-01 7.032099999999999462e-02 3.027000000000000246e-01 2.123849999999999905e-01 -7.486500000000000099e-02 -6.040919999999999623e-01 1.126699999999999924e-02 -2.193869999999999987e-01 -6.229700000000000237e-01 -4.068299999999999694e-02 -1.798399999999999999e-02 8.937799999999999911e-02 1.392529999999999879e-01 -4.929800000000000154e-02 3.204609999999999959e-01 -1.147000000000000016e-03 -1.176210000000000033e-01 -7.152509999999999701e-01 -6.464100000000000401e-02 -1.426999999999999970e-02 -4.346099999999999963e-01 -7.594399999999999762e-02 -8.473600000000000576e-02 6.976320000000000299e-01 -2.638300000000000020e-02 -1.389660000000000062e-01 5.233680000000000554e-01 1.156689999999999940e-01 -7.183900000000000008e-02 -4.052899999999999836e-01 9.224699999999999567e-02 -4.931100000000000066e-02 -3.048230000000000106e-01 6.292999999999999983e-03 8.487500000000000600e-02 7.111030000000000406e-01 -1.349950000000000039e-01 2.022110000000000019e-01 5.403400000000000425e-01 -1.331720000000000126e-01 -9.014600000000000390e-02 -6.324720000000000342e-01 7.277500000000000635e-02 1.541289999999999882e-01 -3.860979999999999968e-01 9.746599999999999708e-02 4.297200000000000325e-02 6.921329999999999982e-01 -1.066850000000000021e-01 8.977300000000000557e-02 5.920260000000000522e-01 5.362299999999999706e-02 1.224930000000000047e-01 -6.293760000000000465e-01 -1.478240000000000109e-01 -8.189100000000000545e-02 -3.162800000000000056e-01 -6.674099999999999477e-02 1.790470000000000117e-01 6.733369999999999633e-01 1.419690000000000119e-01 2.436879999999999880e-01 5.658069999999999489e-01 7.773000000000000395e-03 1.411010000000000042e-01 1.087458000000000036e+00